[Molden Format]
[Geometries] (XYZ)
35

C        2.231623      -0.307277       0.904913
C        0.824437       0.009431       0.407263
O        0.387969      -0.905723      -0.567920
C       -0.185414       0.023984       1.538559
O       -1.215181      -0.585628       1.466526
H        2.241802      -1.281897       1.385859
H        2.548254       0.451709       1.619508
H        2.920029      -0.317461       0.062572
H        0.821889       1.023148      -0.033954
H        0.084672       0.652911       2.408952
H       -0.539955      -1.132932      -0.370441
Sn       0.650343      -3.213015      -0.817507
O        0.719776      -5.185442      -0.998507
O        0.728504      -3.153995       1.116875
O       -1.210829      -2.951316      -1.212978
O        2.638930      -2.777652      -0.894669
O        1.075897      -2.636053      -2.739789
H        3.192331      -2.983511      -0.148635
H        0.547753      -3.073336      -3.403658
Si      -0.104144      -3.544001       2.432707
Si      -1.957145      -2.634720      -2.601108
Si       0.628636      -6.772292      -0.734218
Si       3.022511      -2.634673      -2.599394
H       -0.082093      -4.993213       2.530076
H       -1.441798      -2.989370       2.354880
H        0.763755      -2.876394       3.364387
H       -1.675707      -3.644508      -3.630539
H        2.825129      -3.640395      -3.642461
H       -1.745342      -1.274606      -3.106903
H        2.886143      -1.273272      -3.107821
H       -3.171995      -2.825717      -1.902292
H        0.594469      -6.999978       0.718542
H       -0.573646      -7.317194      -1.386096
H        1.853323      -7.296181      -1.336214
H        4.417262      -2.804299      -2.010804
35

C        2.243854      -0.523284       1.032317
C        0.904170      -0.095709       0.558671
O        0.391554      -1.159240      -0.635746
C       -0.133168      -0.092632       1.638935
O       -1.197342      -0.630984       1.561601
H        2.034709      -1.849648       1.535147
H        2.612818       0.144131       1.807318
H        2.965240      -0.571569       0.222336
H        0.921522       0.923458       0.157145
H        0.159228       0.516824       2.519313
H       -0.539060      -1.343206      -0.453066
Sn       0.663592      -3.172858      -0.811836
O        0.708585      -5.156795      -0.991602
O        0.809775      -3.127857       1.157495
O       -1.210717      -2.912798      -1.209278
O        2.645239      -2.784828      -0.892346
O        1.060903      -2.598707      -2.743510
H        3.200265      -3.000267      -0.150934
H        0.511946      -3.017256      -3.403681
Si      -0.092445      -3.529335       2.433369
Si      -1.958901      -2.637991      -2.603137
Si       0.622747      -6.749613      -0.736679
Si       3.017106      -2.643754      -2.593723
H       -0.082093      -4.993213       2.530076
H       -1.441798      -2.989370       2.354880
H        0.763755      -2.876394       3.364387
H       -1.675707      -3.644508      -3.630539
H        2.825129      -3.640395      -3.642461
H       -1.745342      -1.274606      -3.106903
H        2.886143      -1.273272      -3.107821
H       -3.171995      -2.825717      -1.902292
H        0.594469      -6.999978       0.718542
H       -0.573646      -7.317194      -1.386096
H        1.853323      -7.296181      -1.336214
H        4.417262      -2.804299      -2.010804
35

C        2.548900      -0.063773       0.743954
C        1.091895       0.186664       0.542014
O        0.538603      -0.798979      -0.368217
C        0.432427       0.058152       1.891818
O       -0.404964      -0.760470       2.139569
H        1.726193      -2.511370       1.458695
H        3.018336       0.443153       1.605995
H        3.164224      -0.034112      -0.150478
H        0.845307       1.094278       0.012452
H        0.830818       0.755390       2.698082
H       -0.382859      -0.975924      -0.128913
Sn       0.646009      -3.089315      -0.874911
O        0.641394      -5.213505      -1.025879
O        0.960913      -3.093291       1.333096
O       -1.402680      -2.880985      -1.145475
O        2.745509      -2.819151      -0.955524
O        1.052785      -2.461903      -2.934691
H        3.368759      -3.057307      -0.274530
H        0.500953      -2.804285      -3.640813
Si      -0.118443      -3.535735       2.502684
Si      -1.959370      -2.624902      -2.601741
Si       0.633797      -6.767497      -0.765541
Si       3.013170      -2.640317      -2.634179
H       -0.082093      -4.993213       2.530076
H       -1.441798      -2.989370       2.354880
H        0.763755      -2.876394       3.364387
H       -1.675707      -3.644508      -3.630539
H        2.825129      -3.640395      -3.642461
H       -1.745342      -1.274606      -3.106903
H        2.886143      -1.273272      -3.107821
H       -3.171995      -2.825717      -1.902292
H        0.594469      -6.999978       0.718542
H       -0.573646      -7.317194      -1.386096
H        1.853323      -7.296181      -1.336214
H        4.417262      -2.804299      -2.010804
[GEOCONV]
energy
0.0
53.7662407351454
67.52516327774356
max-force
0.0
0.009062144131959406
0.009231764219557135
max-step
1000.0
1000.0
1000.0
