[Molden Format]
[Geometries] (XYZ)
35

C        2.231623      -0.307277       0.904913
C        0.824437       0.009431       0.407263
O        0.387969      -0.905723      -0.567920
C       -0.185414       0.023984       1.538559
O       -1.215181      -0.585628       1.466526
H        2.241802      -1.281897       1.385859
H        2.548254       0.451709       1.619508
H        2.920029      -0.317461       0.062572
H        0.821889       1.023148      -0.033954
H        0.084672       0.652911       2.408952
H       -0.539955      -1.132932      -0.370441
Sn       0.650343      -3.213015      -0.817507
O        0.719776      -5.185442      -0.998507
O        0.728504      -3.153995       1.116875
O       -1.210829      -2.951316      -1.212978
O        2.638930      -2.777652      -0.894669
O        1.075897      -2.636053      -2.739789
H        3.192331      -2.983511      -0.148635
H        0.547753      -3.073336      -3.403658
Si      -0.104144      -3.544001       2.432707
Si      -1.957145      -2.634720      -2.601108
Si       0.628636      -6.772292      -0.734218
Si       3.022511      -2.634673      -2.599394
H       -0.082093      -4.993213       2.530076
H       -1.441798      -2.989370       2.354880
H        0.763755      -2.876394       3.364387
H       -1.675707      -3.644508      -3.630539
H        2.825129      -3.640395      -3.642461
H       -1.745342      -1.274606      -3.106903
H        2.886143      -1.273272      -3.107821
H       -3.171995      -2.825717      -1.902292
H        0.594469      -6.999978       0.718542
H       -0.573646      -7.317194      -1.386096
H        1.853323      -7.296181      -1.336214
H        4.417262      -2.804299      -2.010804
35

C        2.243854      -0.523284       1.032317
C        0.904170      -0.095709       0.558671
O        0.391554      -1.159240      -0.635746
C       -0.133168      -0.092632       1.638935
O       -1.197342      -0.630984       1.561601
H        2.034709      -1.849648       1.535147
H        2.612818       0.144131       1.807318
H        2.965240      -0.571569       0.222336
H        0.921522       0.923458       0.157145
H        0.159228       0.516824       2.519313
H       -0.539060      -1.343206      -0.453066
Sn       0.663592      -3.172858      -0.811836
O        0.708585      -5.156795      -0.991602
O        0.809775      -3.127857       1.157495
O       -1.210717      -2.912798      -1.209278
O        2.645239      -2.784828      -0.892346
O        1.060903      -2.598707      -2.743510
H        3.200265      -3.000267      -0.150934
H        0.511946      -3.017256      -3.403681
Si      -0.092445      -3.529335       2.433369
Si      -1.958901      -2.637991      -2.603137
Si       0.622747      -6.749613      -0.736679
Si       3.017106      -2.643754      -2.593723
H       -0.082093      -4.993213       2.530076
H       -1.441798      -2.989370       2.354880
H        0.763755      -2.876394       3.364387
H       -1.675707      -3.644508      -3.630539
H        2.825129      -3.640395      -3.642461
H       -1.745342      -1.274606      -3.106903
H        2.886143      -1.273272      -3.107821
H       -3.171995      -2.825717      -1.902292
H        0.594469      -6.999978       0.718542
H       -0.573646      -7.317194      -1.386096
H        1.853323      -7.296181      -1.336214
H        4.417262      -2.804299      -2.010804
35

C        2.548900      -0.063773       0.743954
C        1.091895       0.186664       0.542014
O        0.538603      -0.798979      -0.368217
C        0.432427       0.058152       1.891818
O       -0.404964      -0.760470       2.139569
H        1.726193      -2.511370       1.458695
H        3.018336       0.443153       1.605995
H        3.164224      -0.034112      -0.150478
H        0.845307       1.094278       0.012452
H        0.830818       0.755390       2.698082
H       -0.382859      -0.975924      -0.128913
Sn       0.646009      -3.089315      -0.874911
O        0.641394      -5.213505      -1.025879
O        0.960913      -3.093291       1.333096
O       -1.402680      -2.880985      -1.145475
O        2.745509      -2.819151      -0.955524
O        1.052785      -2.461903      -2.934691
H        3.368759      -3.057307      -0.274530
H        0.500953      -2.804285      -3.640813
Si      -0.118443      -3.535735       2.502684
Si      -1.959370      -2.624902      -2.601741
Si       0.633797      -6.767497      -0.765541
Si       3.013170      -2.640317      -2.634179
H       -0.082093      -4.993213       2.530076
H       -1.441798      -2.989370       2.354880
H        0.763755      -2.876394       3.364387
H       -1.675707      -3.644508      -3.630539
H        2.825129      -3.640395      -3.642461
H       -1.745342      -1.274606      -3.106903
H        2.886143      -1.273272      -3.107821
H       -3.171995      -2.825717      -1.902292
H        0.594469      -6.999978       0.718542
H       -0.573646      -7.317194      -1.386096
H        1.853323      -7.296181      -1.336214
H        4.417262      -2.804299      -2.010804
35

C        2.707670      -0.131008       1.054823
C        1.393120       0.187933       0.882487
O        0.527320      -1.179746      -0.524314
C        0.638792      -0.018810       2.162352
O       -0.213518      -0.873385       2.337248
H        1.651053      -2.533053       1.387892
H        3.249411       0.113397       1.946710
H        3.333221      -0.089121       0.154886
H        1.096849       1.062052       0.327340
H        0.957143       0.644369       3.000275
H       -0.382929      -1.270143      -0.288891
Sn       0.635891      -3.123856      -0.895096
O        0.625901      -5.168347      -1.008960
O        0.926959      -3.108391       1.234076
O       -1.298293      -2.978765      -1.151341
O        2.653278      -2.873600      -0.940044
O        1.063306      -2.528837      -2.834349
H        3.238376      -3.132818      -0.237618
H        0.509080      -2.868110      -3.533704
Si      -0.115793      -3.540476       2.451459
Si      -1.948631      -2.633295      -2.593004
Si       0.605366      -6.760349      -0.732536
Si       3.039369      -2.642478      -2.615098
H       -0.082093      -4.993213       2.530076
H       -1.441798      -2.989370       2.354880
H        0.763755      -2.876394       3.364387
H       -1.675707      -3.644508      -3.630539
H        2.825129      -3.640395      -3.642461
H       -1.745342      -1.274606      -3.106903
H        2.886143      -1.273272      -3.107821
H       -3.171995      -2.825717      -1.902292
H        0.594469      -6.999978       0.718542
H       -0.573646      -7.317194      -1.386096
H        1.853323      -7.296181      -1.336214
H        4.417262      -2.804299      -2.010804
35

C        2.979274      -0.019604       1.495048
C        1.702344       0.353092       1.343810
O        0.472058      -1.332916      -0.663110
C        0.880384       0.064385       2.568218
O        0.040299      -0.789352       2.617946
H        1.577235      -2.473424       1.407888
H        3.518421      -0.032229       2.425426
H        3.636745       0.051735       0.637983
H        1.396552       1.225379       0.797266
H        1.119771       0.665456       3.480452
H       -0.452498      -1.350996      -0.411609
Sn       0.630123      -3.151905      -0.959130
O        0.654022      -5.141660      -0.999098
O        0.872377      -3.087905       1.213353
O       -1.282674      -3.060326      -1.205344
O        2.627638      -2.906066      -0.972687
O        1.053933      -2.587746      -2.874812
H        3.223843      -3.161620      -0.267702
H        0.509721      -2.928023      -3.583098
Si      -0.131204      -3.520535       2.468029
Si      -1.961574      -2.638070      -2.600021
Si       0.633103      -6.733123      -0.739201
Si       3.044051      -2.632248      -2.632407
H       -0.082093      -4.993213       2.530076
H       -1.441798      -2.989370       2.354880
H        0.763755      -2.876394       3.364387
H       -1.675707      -3.644508      -3.630539
H        2.825129      -3.640395      -3.642461
H       -1.745342      -1.274606      -3.106903
H        2.886143      -1.273272      -3.107821
H       -3.171995      -2.825717      -1.902292
H        0.594469      -6.999978       0.718542
H       -0.573646      -7.317194      -1.386096
H        1.853323      -7.296181      -1.336214
H        4.417262      -2.804299      -2.010804
35

C        3.425797      -0.254637       2.239058
C        2.242523       0.373426       2.233056
O        0.568217      -1.350018      -0.740344
C        1.218302       0.001681       3.275916
O        0.301168      -0.744886       3.036151
H        1.480846      -2.474929       1.474664
H        3.873655      -0.709720       3.124149
H        4.116987      -0.109354       1.413417
H        2.067731       1.336287       1.777413
H        1.371278       0.427480       4.300518
H       -0.333337      -1.189646      -0.471607
Sn       0.629413      -3.098431      -1.015310
O        0.683640      -5.130440      -0.983782
O        0.797503      -3.068713       1.173016
O       -1.270871      -3.099760      -1.192089
O        2.625840      -2.954768      -0.940356
O        1.053641      -2.578516      -2.923915
H        3.175546      -3.242816      -0.234511
H        0.536384      -2.930863      -3.625625
Si      -0.132623      -3.538059       2.452769
Si      -1.941936      -2.669936      -2.579069
Si       0.616355      -6.708929      -0.729027
Si       3.033685      -2.637381      -2.623559
H       -0.082093      -4.993213       2.530076
H       -1.441798      -2.989370       2.354880
H        0.763755      -2.876394       3.364387
H       -1.675707      -3.644508      -3.630539
H        2.825129      -3.640395      -3.642461
H       -1.745342      -1.274606      -3.106903
H        2.886143      -1.273272      -3.107821
H       -3.171995      -2.825717      -1.902292
H        0.594469      -6.999978       0.718542
H       -0.573646      -7.317194      -1.386096
H        1.853323      -7.296181      -1.336214
H        4.417262      -2.804299      -2.010804
35

C        3.209358      -0.204056       1.684783
C        2.006745       0.330901       1.731625
O        0.592091      -1.179303      -0.683861
C        1.002293       0.001481       2.800119
O        0.143243      -0.839070       2.697460
H        1.393370      -2.437791       1.298047
H        3.672391      -0.712324       2.521611
H        3.858106      -0.020666       0.851298
H        1.710955       1.182169       1.100347
H        1.110203       0.567991       3.742054
H       -0.301568      -0.998228      -0.381443
Sn       0.607332      -3.117147      -1.028503
O        0.727066      -5.145131      -0.943479
O        0.725880      -3.096625       1.106000
O       -1.314989      -3.108865      -1.223038
O        2.625242      -2.948776      -0.956341
O        1.033515      -2.629249      -2.949240
H        3.174116      -3.229143      -0.246711
H        0.521758      -3.016738      -3.659919
Si      -0.117780      -3.542267       2.466922
Si      -1.976455      -2.665378      -2.611842
Si       0.662040      -6.750616      -0.749397
Si       3.043238      -2.650789      -2.601942
H       -0.082093      -4.993213       2.530076
H       -1.441798      -2.989370       2.354880
H        0.763755      -2.876394       3.364387
H       -1.675707      -3.644508      -3.630539
H        2.825129      -3.640395      -3.642461
H       -1.745342      -1.274606      -3.106903
H        2.886143      -1.273272      -3.107821
H       -3.171995      -2.825717      -1.902292
H        0.594469      -6.999978       0.718542
H       -0.573646      -7.317194      -1.386096
H        1.853323      -7.296181      -1.336214
H        4.417262      -2.804299      -2.010804
35

C        3.210972      -0.251779       1.392724
C        1.980585       0.245741       1.427074
O        0.652880      -1.607066      -0.757353
C        1.009421       0.051536       2.541319
O        0.189087      -0.829704       2.572567
H        1.402962      -2.421339       1.222961
H        3.681754      -0.722502       2.246837
H        3.831035      -0.130130       0.508320
H        1.624867       0.950128       0.674423
H        1.073374       0.792711       3.345217
H       -0.195445      -1.312279      -0.447689
Sn       0.644743      -3.100059      -1.043428
O        0.735011      -5.121195      -0.941199
O        0.701494      -3.148760       1.113429
O       -1.264907      -3.141322      -1.183479
O        2.656097      -2.969762      -0.960554
O        1.047379      -2.674731      -2.992134
H        3.246719      -3.258995      -0.273670
H        0.540028      -3.082324      -3.690441
Si      -0.127137      -3.556543       2.477892
Si      -1.946327      -2.675139      -2.562634
Si       0.630726      -6.717745      -0.738419
Si       3.036075      -2.657426      -2.625236
H       -0.082093      -4.993213       2.530076
H       -1.441798      -2.989370       2.354880
H        0.763755      -2.876394       3.364387
H       -1.675707      -3.644508      -3.630539
H        2.825129      -3.640395      -3.642461
H       -1.745342      -1.274606      -3.106903
H        2.886143      -1.273272      -3.107821
H       -3.171995      -2.825717      -1.902292
H        0.594469      -6.999978       0.718542
H       -0.573646      -7.317194      -1.386096
H        1.853323      -7.296181      -1.336214
H        4.417262      -2.804299      -2.010804
[GEOCONV]
energy
0.0
53.7662407351454
67.52516327774356
85.39684158204909
80.36049428055412
78.73587567300274
57.13421309777186
126.6539902068107
max-force
0.0
0.009062144131959406
0.009231764219557135
0.008370623751526947
0.009654448875733012
0.008496055032317752
0.009490889938309596
0.006276614948155682
max-step
1000.0
1000.0
1000.0
1000.0
1000.0
1000.0
1000.0
1000.0
