[Molden Format]
[Geometries] (XYZ)
35

C        2.171975      -0.115727       0.908331
C        0.776561       0.267913       0.431064
O        0.309334      -0.604106      -0.561027
C       -0.204452       0.289100       1.578794
O       -1.282078      -0.233491       1.512497
H        2.133566      -1.110169       1.341397
H        2.526832       0.595658       1.648125
H        2.845976      -0.125994       0.057404
H        0.807346       1.293510       0.017577
H        0.135818       0.831600       2.477625
H       -0.632511      -0.753598      -0.369290
Sn       0.567360      -3.332966      -0.800497
O        0.750469      -5.192874      -1.129062
O        0.763286      -3.119235       1.082353
O       -1.230851      -2.944397      -1.147984
O        2.580572      -2.826661      -0.943997
O        1.026874      -2.612787      -2.695027
H        3.262085      -3.012539      -0.294883
H        0.636776      -3.037736      -3.461179
Si      -0.095298      -3.540242       2.387065
Si      -1.938836      -2.636291      -2.580763
Si       0.628507      -6.761477      -0.737922
Si       3.039240      -2.632330      -2.598778
H       -0.082093      -4.993213       2.530076
H       -1.441798      -2.989370       2.354880
H        0.763755      -2.876394       3.364387
H       -1.675707      -3.644508      -3.630539
H        2.825129      -3.640395      -3.642461
H       -1.745342      -1.274606      -3.106903
H        2.886143      -1.273272      -3.107821
H       -3.171995      -2.825717      -1.902292
H        0.594469      -6.999978       0.718542
H       -0.573646      -7.317194      -1.386096
H        1.853323      -7.296181      -1.336214
H        4.417262      -2.804299      -2.010804
35

C        2.226406      -0.369438       1.089593
C        0.917211       0.166346       0.559799
O        0.415873      -0.734832      -0.533988
C       -0.150265       0.219773       1.619526
O       -1.249671      -0.242552       1.478843
H        2.005413      -1.444168       1.413111
H        2.587274       0.146809       1.976148
H        2.978821      -0.389137       0.309536
H        1.000608       1.150762       0.072681
H        0.154644       0.731813       2.547457
H       -0.542849      -0.751516      -0.357132
Sn       0.561223      -3.299664      -0.821161
O        0.744154      -5.180811      -1.112015
O        0.790956      -3.122132       1.103336
O       -1.252470      -2.966508      -1.150986
O        2.586098      -2.848346      -0.958159
O        1.009828      -2.609160      -2.717136
H        3.267893      -3.058468      -0.316391
H        0.624547      -3.034599      -3.485093
Si      -0.094791      -3.562034       2.383856
Si      -1.945736      -2.652506      -2.589633
Si       0.618482      -6.753782      -0.746650
Si       3.049538      -2.641349      -2.603407
H       -0.082093      -4.993213       2.530076
H       -1.441798      -2.989370       2.354880
H        0.763755      -2.876394       3.364387
H       -1.675707      -3.644508      -3.630539
H        2.825129      -3.640395      -3.642461
H       -1.745342      -1.274606      -3.106903
H        2.886143      -1.273272      -3.107821
H       -3.171995      -2.825717      -1.902292
H        0.594469      -6.999978       0.718542
H       -0.573646      -7.317194      -1.386096
H        1.853323      -7.296181      -1.336214
H        4.417262      -2.804299      -2.010804
35

C        2.247095      -0.722909       1.291427
C        1.096146      -0.010566       0.707910
O        0.538053      -0.939906      -0.530385
C       -0.059652       0.125968       1.649210
O       -1.182516      -0.232837       1.414195
H        1.771001      -1.859932       1.425743
H        2.522045      -0.471157       2.311905
H        3.092287      -0.782279       0.620177
H        1.269995       0.905657       0.136110
H        0.205631       0.599830       2.608013
H       -0.415160      -0.784076      -0.376546
Sn       0.557014      -3.240644      -0.851409
O        0.746228      -5.151642      -1.085611
O        0.834937      -3.093268       1.138922
O       -1.273650      -2.976675      -1.156451
O        2.595270      -2.858130      -0.978805
O        0.987591      -2.598643      -2.747685
H        3.272743      -3.095725      -0.341220
H        0.607879      -3.030159      -3.514843
Si      -0.079430      -3.538660       2.396849
Si      -1.950831      -2.650736      -2.600244
Si       0.617122      -6.727398      -0.745877
Si       3.069888      -2.639213      -2.609402
H       -0.082093      -4.993213       2.530076
H       -1.441798      -2.989370       2.354880
H        0.763755      -2.876394       3.364387
H       -1.675707      -3.644508      -3.630539
H        2.825129      -3.640395      -3.642461
H       -1.745342      -1.274606      -3.106903
H        2.886143      -1.273272      -3.107821
H       -3.171995      -2.825717      -1.902292
H        0.594469      -6.999978       0.718542
H       -0.573646      -7.317194      -1.386096
H        1.853323      -7.296181      -1.336214
H        4.417262      -2.804299      -2.010804
35

C        2.231540      -0.921942       1.447954
C        1.308498      -0.067408       0.661978
O        0.639007      -0.986546      -0.512789
C        0.135632       0.479138       1.409506
O       -0.992999       0.384216       1.032576
H        1.681305      -1.932830       1.393364
H        2.153982      -0.829517       2.526719
H        3.218098      -1.018437       1.050077
H        1.716793       0.574809      -0.130570
H        0.396000       0.976101       2.367180
H       -0.279607      -0.662906      -0.486405
Sn       0.539025      -3.234427      -0.877731
O        0.771061      -5.154340      -1.033344
O        0.855845      -3.165086       1.123400
O       -1.307734      -3.038375      -1.137802
O        2.587592      -2.961994      -1.010466
O        0.951322      -2.685284      -2.765163
H        3.240294      -3.265600      -0.379307
H        0.596085      -3.162186      -3.509589
Si      -0.088653      -3.564289       2.367572
Si      -1.945841      -2.646312      -2.591181
Si       0.633704      -6.735769      -0.730038
Si       3.080235      -2.641662      -2.615707
H       -0.082093      -4.993213       2.530076
H       -1.441798      -2.989370       2.354880
H        0.763755      -2.876394       3.364387
H       -1.675707      -3.644508      -3.630539
H        2.825129      -3.640395      -3.642461
H       -1.745342      -1.274606      -3.106903
H        2.886143      -1.273272      -3.107821
H       -3.171995      -2.825717      -1.902292
H        0.594469      -6.999978       0.718542
H       -0.573646      -7.317194      -1.386096
H        1.853323      -7.296181      -1.336214
H        4.417262      -2.804299      -2.010804
35

C        2.349780      -1.012083       1.645563
C        1.526617      -0.139661       0.969401
O        0.650407      -1.178953      -0.576470
C        0.294207       0.347499       1.637907
O       -0.827297       0.268637       1.223264
H        1.553782      -2.188345       1.400796
H        2.212278      -1.167507       2.705999
H        3.326197      -1.226675       1.245751
H        1.878956       0.457996       0.141315
H        0.506160       0.822823       2.618854
H       -0.223059      -0.778466      -0.532620
Sn       0.532546      -3.209140      -0.953495
O        0.763814      -5.141879      -1.056145
O        0.894624      -3.136684       1.180292
O       -1.314795      -3.069015      -1.171572
O        2.589557      -2.965333      -1.039968
O        0.950292      -2.658778      -2.861610
H        3.255607      -3.254749      -0.414650
H        0.604450      -3.136703      -3.615598
Si      -0.095272      -3.550411       2.405105
Si      -1.957262      -2.644132      -2.598969
Si       0.627759      -6.720721      -0.740670
Si       3.078875      -2.636020      -2.634134
H       -0.082093      -4.993213       2.530076
H       -1.441798      -2.989370       2.354880
H        0.763755      -2.876394       3.364387
H       -1.675707      -3.644508      -3.630539
H        2.825129      -3.640395      -3.642461
H       -1.745342      -1.274606      -3.106903
H        2.886143      -1.273272      -3.107821
H       -3.171995      -2.825717      -1.902292
H        0.594469      -6.999978       0.718542
H       -0.573646      -7.317194      -1.386096
H        1.853323      -7.296181      -1.336214
H        4.417262      -2.804299      -2.010804
35

C        2.718148      -0.968985       1.855194
C        1.802115      -0.094912       1.439591
O        0.662138      -1.302979      -0.529813
C        0.551332       0.163459       2.179756
O       -0.549822       0.076045       1.702134
H        1.558668      -2.476843       1.438661
H        2.658682      -1.441671       2.821601
H        3.643215      -1.088746       1.327889
H        1.949276       0.490735       0.546632
H        0.691120       0.503640       3.221737
H       -0.179194      -0.888524      -0.367075
Sn       0.517595      -3.187293      -1.021991
O        0.738702      -5.133587      -1.026653
O        0.978207      -3.234639       1.227581
O       -1.341522      -3.041696      -1.175029
O        2.583385      -3.042292      -1.095973
O        0.912481      -2.690861      -2.927976
H        3.244349      -3.380455      -0.490275
H        0.593483      -3.204236      -3.675250
Si      -0.100952      -3.555854       2.426833
Si      -1.973823      -2.652383      -2.615785
Si       0.624283      -6.716518      -0.750718
Si       3.096520      -2.631701      -2.653099
H       -0.082093      -4.993213       2.530076
H       -1.441798      -2.989370       2.354880
H        0.763755      -2.876394       3.364387
H       -1.675707      -3.644508      -3.630539
H        2.825129      -3.640395      -3.642461
H       -1.745342      -1.274606      -3.106903
H        2.886143      -1.273272      -3.107821
H       -3.171995      -2.825717      -1.902292
H        0.594469      -6.999978       0.718542
H       -0.573646      -7.317194      -1.386096
H        1.853323      -7.296181      -1.336214
H        4.417262      -2.804299      -2.010804
35

C        2.796403      -0.935945       1.804851
C        1.807330      -0.101535       1.496877
O        0.646190      -1.331446      -0.525878
C        0.593656       0.081732       2.314571
O       -0.516669      -0.190740       1.960290
H        1.554400      -2.507494       1.391460
H        2.799336      -1.498662       2.721215
H        3.663545      -1.013326       1.183421
H        1.849010       0.505449       0.603956
H        0.787604       0.509721       3.318602
H       -0.203782      -0.939067      -0.324060
Sn       0.515266      -3.203221      -1.049231
O        0.767556      -5.140908      -1.030366
O        0.961843      -3.253414       1.217113
O       -1.340802      -3.099815      -1.190488
O        2.584463      -3.030482      -1.095595
O        0.918915      -2.693827      -2.932189
H        3.236082      -3.396239      -0.496083
H        0.577256      -3.138987      -3.707594
Si      -0.104343      -3.555556       2.429865
Si      -1.969579      -2.651480      -2.618513
Si       0.624829      -6.719914      -0.750829
Si       3.098008      -2.640277      -2.651361
H       -0.082093      -4.993213       2.530076
H       -1.441798      -2.989370       2.354880
H        0.763755      -2.876394       3.364387
H       -1.675707      -3.644508      -3.630539
H        2.825129      -3.640395      -3.642461
H       -1.745342      -1.274606      -3.106903
H        2.886143      -1.273272      -3.107821
H       -3.171995      -2.825717      -1.902292
H        0.594469      -6.999978       0.718542
H       -0.573646      -7.317194      -1.386096
H        1.853323      -7.296181      -1.336214
H        4.417262      -2.804299      -2.010804
35

C        2.845610      -0.927405       1.751313
C        1.848628      -0.104949       1.449950
O        0.654206      -1.331451      -0.550992
C        0.653159       0.089869       2.292665
O       -0.476085      -0.202008       1.985483
H        1.581066      -2.530080       1.382573
H        2.859519      -1.494801       2.670191
H        3.711497      -1.017975       1.115858
H        1.884829       0.497968       0.556278
H        0.869269       0.542671       3.281799
H       -0.200374      -0.941988      -0.353742
Sn       0.505731      -3.204501      -1.051259
O        0.761891      -5.134475      -1.031931
O        0.993930      -3.268295       1.227520
O       -1.343039      -3.123050      -1.197242
O        2.582104      -3.023699      -1.084538
O        0.905919      -2.678439      -2.933377
H        3.236581      -3.371241      -0.477720
H        0.590398      -3.117854      -3.725569
Si      -0.094437      -3.557961       2.429100
Si      -1.974819      -2.646516      -2.610372
Si       0.624252      -6.713510      -0.743274
Si       3.093687      -2.636055      -2.646035
H       -0.082093      -4.993213       2.530076
H       -1.441798      -2.989370       2.354880
H        0.763755      -2.876394       3.364387
H       -1.675707      -3.644508      -3.630539
H        2.825129      -3.640395      -3.642461
H       -1.745342      -1.274606      -3.106903
H        2.886143      -1.273272      -3.107821
H       -3.171995      -2.825717      -1.902292
H        0.594469      -6.999978       0.718542
H       -0.573646      -7.317194      -1.386096
H        1.853323      -7.296181      -1.336214
H        4.417262      -2.804299      -2.010804
35

C        2.805174      -0.648602       1.773648
C        1.740397       0.098831       1.521046
O        0.674796      -1.330468      -0.562467
C        0.508839       0.096958       2.333059
O       -0.566424      -0.282208       1.954178
H        1.578628      -2.568585       1.338347
H        2.858732      -1.291634       2.636768
H        3.664728      -0.630297       1.130629
H        1.709639       0.740314       0.650717
H        0.634937       0.516650       3.355049
H       -0.156099      -0.945071      -0.277313
Sn       0.513247      -3.188515      -1.087161
O        0.756138      -5.134940      -1.037454
O        0.965987      -3.297140       1.204153
O       -1.335775      -3.124383      -1.192396
O        2.587001      -3.067243      -1.090175
O        0.913895      -2.692204      -2.963631
H        3.219241      -3.483636      -0.503198
H        0.585456      -3.187492      -3.716099
Si      -0.098886      -3.555254       2.430194
Si      -1.964930      -2.642770      -2.606753
Si       0.626912      -6.712081      -0.743189
Si       3.100720      -2.636213      -2.647486
H       -0.082093      -4.993213       2.530076
H       -1.441798      -2.989370       2.354880
H        0.763755      -2.876394       3.364387
H       -1.675707      -3.644508      -3.630539
H        2.825129      -3.640395      -3.642461
H       -1.745342      -1.274606      -3.106903
H        2.886143      -1.273272      -3.107821
H       -3.171995      -2.825717      -1.902292
H        0.594469      -6.999978       0.718542
H       -0.573646      -7.317194      -1.386096
H        1.853323      -7.296181      -1.336214
H        4.417262      -2.804299      -2.010804
35

C        2.740566      -0.033222       1.583318
C        1.575522       0.537908       1.322362
O        0.708728      -1.348811      -0.573853
C        0.376287       0.378482       2.161388
O       -0.599230      -0.258388       1.864607
H        1.594373      -2.630112       1.331216
H        2.884144      -0.644078       2.461822
H        3.579426       0.079567       0.923776
H        1.441736       1.128914       0.426794
H        0.430023       0.912009       3.133659
H       -0.104624      -0.974283      -0.228545
Sn       0.515709      -3.182157      -1.125420
O        0.748947      -5.133331      -1.064974
O        0.950732      -3.324562       1.193847
O       -1.339908      -3.137741      -1.196941
O        2.591481      -3.119971      -1.113642
O        0.894232      -2.686281      -2.988854
H        3.218571      -3.557881      -0.540379
H        0.561240      -3.193261      -3.728325
Si      -0.101776      -3.561932       2.432203
Si      -1.965959      -2.652503      -2.608496
Si       0.623367      -6.707841      -0.745419
Si       3.109652      -2.639131      -2.649449
H       -0.082093      -4.993213       2.530076
H       -1.441798      -2.989370       2.354880
H        0.763755      -2.876394       3.364387
H       -1.675707      -3.644508      -3.630539
H        2.825129      -3.640395      -3.642461
H       -1.745342      -1.274606      -3.106903
H        2.886143      -1.273272      -3.107821
H       -3.171995      -2.825717      -1.902292
H        0.594469      -6.999978       0.718542
H       -0.573646      -7.317194      -1.386096
H        1.853323      -7.296181      -1.336214
H        4.417262      -2.804299      -2.010804
35

C        2.578344       0.726494       0.897384
C        1.348551       1.125129       0.644839
O        0.765757      -1.350907      -0.618120
C        0.218579       1.023373       1.593353
O       -0.594167       0.138752       1.603775
H        1.591881      -2.613434       1.330156
H        2.852659       0.303257       1.855847
H        3.353800       0.774677       0.156498
H        1.076128       1.566662      -0.297773
H        0.147369       1.859320       2.312493
H        0.010780      -0.884052      -0.249265
Sn       0.525089      -3.165668      -1.169869
O        0.766174      -5.131583      -1.068918
O        0.911896      -3.274914       1.167576
O       -1.321525      -3.167862      -1.196659
O        2.587017      -3.159826      -1.141826
O        0.864706      -2.656278      -3.033582
H        3.198532      -3.622526      -0.561297
H        0.454925      -3.115594      -3.772480
Si      -0.106647      -3.553566       2.423064
Si      -1.968905      -2.657753      -2.595572
Si       0.623852      -6.700956      -0.751343
Si       3.117976      -2.636083      -2.662964
H       -0.082093      -4.993213       2.530076
H       -1.441798      -2.989370       2.354880
H        0.763755      -2.876394       3.364387
H       -1.675707      -3.644508      -3.630539
H        2.825129      -3.640395      -3.642461
H       -1.745342      -1.274606      -3.106903
H        2.886143      -1.273272      -3.107821
H       -3.171995      -2.825717      -1.902292
H        0.594469      -6.999978       0.718542
H       -0.573646      -7.317194      -1.386096
H        1.853323      -7.296181      -1.336214
H        4.417262      -2.804299      -2.010804
[GEOCONV]
energy
0.0
6.101542692020303
32.41104861731583
37.293099078196974
66.00475373834342
52.863934764005535
51.68387253255787
51.50495518225944
50.009347003433504
50.46347168729699
52.917510895917076
max-force
0.0
0.009478029848552448
0.009105486458335754
0.005535693684726345
0.0011455652330734291
0.6752679790974735
0.0035963984584450985
0.003383158828917433
0.0018030401256918054
0.0019267409748660398
0.007994599871659853
max-step
1000.0
1000.0
1000.0
1000.0
1000.0
1000.0
1000.0
1000.0
1000.0
1000.0
1000.0
