[Molden Format]
[Geometries] (XYZ)
35

C        2.171975      -0.115727       0.908331
C        0.776561       0.267913       0.431064
O        0.309334      -0.604106      -0.561027
C       -0.204452       0.289100       1.578794
O       -1.282078      -0.233491       1.512497
H        2.133566      -1.110169       1.341397
H        2.526832       0.595658       1.648125
H        2.845976      -0.125994       0.057404
H        0.807346       1.293510       0.017577
H        0.135818       0.831600       2.477625
H       -0.632511      -0.753598      -0.369290
Sn       0.567360      -3.332966      -0.800497
O        0.750469      -5.192874      -1.129062
O        0.763286      -3.119235       1.082353
O       -1.230851      -2.944397      -1.147984
O        2.580572      -2.826661      -0.943997
O        1.026874      -2.612787      -2.695027
H        3.262085      -3.012539      -0.294883
H        0.636776      -3.037736      -3.461179
Si      -0.095298      -3.540242       2.387065
Si      -1.938836      -2.636291      -2.580763
Si       0.628507      -6.761477      -0.737922
Si       3.039240      -2.632330      -2.598778
H       -0.082093      -4.993213       2.530076
H       -1.441798      -2.989370       2.354880
H        0.763755      -2.876394       3.364387
H       -1.675707      -3.644508      -3.630539
H        2.825129      -3.640395      -3.642461
H       -1.745342      -1.274606      -3.106903
H        2.886143      -1.273272      -3.107821
H       -3.171995      -2.825717      -1.902292
H        0.594469      -6.999978       0.718542
H       -0.573646      -7.317194      -1.386096
H        1.853323      -7.296181      -1.336214
H        4.417262      -2.804299      -2.010804
35

C        2.228634      -0.385081       1.098779
C        0.929609       0.162177       0.556056
O        0.423811      -0.739283      -0.533500
C       -0.146478       0.239002       1.605131
O       -1.250280      -0.207296       1.456558
H        1.996764      -1.449394       1.409872
H        2.576688       0.116901       1.998361
H        2.992709      -0.404129       0.332139
H        1.028404       1.136681       0.050603
H        0.157656       0.752089       2.534099
H       -0.536018      -0.745308      -0.363700
Sn       0.559464      -3.297942      -0.823034
O        0.744944      -5.180292      -1.108733
O        0.793278      -3.124457       1.103699
O       -1.255379      -2.969773      -1.151145
O        2.585954      -2.853704      -0.961046
O        1.005663      -2.613705      -2.716682
H        3.266104      -3.067661      -0.319207
H        0.621230      -3.041340      -3.483044
Si      -0.092526      -3.562538       2.383815
Si      -1.945963      -2.652077      -2.591342
Si       0.618488      -6.753467      -0.745146
Si       3.051139      -2.641380      -2.604411
H       -0.082093      -4.993213       2.530076
H       -1.441798      -2.989370       2.354880
H        0.763755      -2.876394       3.364387
H       -1.675707      -3.644508      -3.630539
H        2.825129      -3.640395      -3.642461
H       -1.745342      -1.274606      -3.106903
H        2.886143      -1.273272      -3.107821
H       -3.171995      -2.825717      -1.902292
H        0.594469      -6.999978       0.718542
H       -0.573646      -7.317194      -1.386096
H        1.853323      -7.296181      -1.336214
H        4.417262      -2.804299      -2.010804
35

C        2.249549      -0.736753       1.305705
C        1.118868      -0.006068       0.689770
O        0.547300      -0.932541      -0.525710
C       -0.044463       0.192637       1.610504
O       -1.172536      -0.127724       1.360677
H        1.778401      -1.836642       1.421501
H        2.480860      -0.499121       2.340228
H        3.115859      -0.796481       0.668805
H        1.329407       0.879865       0.079168
H        0.223316       0.672592       2.569071
H       -0.403996      -0.759354      -0.391343
Sn       0.553094      -3.243779      -0.854289
O        0.748713      -5.154683      -1.079828
O        0.836428      -3.107437       1.133334
O       -1.279465      -2.988042      -1.154430
O        2.593686      -2.875555      -0.983404
O        0.979927      -2.615087      -2.744585
H        3.267084      -3.122675      -0.346733
H        0.603737      -3.053377      -3.507104
Si      -0.078914      -3.545851       2.390912
Si      -1.951031      -2.652918      -2.601482
Si       0.618289      -6.731245      -0.744676
Si       3.072087      -2.640365      -2.609858
H       -0.082093      -4.993213       2.530076
H       -1.441798      -2.989370       2.354880
H        0.763755      -2.876394       3.364387
H       -1.675707      -3.644508      -3.630539
H        2.825129      -3.640395      -3.642461
H       -1.745342      -1.274606      -3.106903
H        2.886143      -1.273272      -3.107821
H       -3.171995      -2.825717      -1.902292
H        0.594469      -6.999978       0.718542
H       -0.573646      -7.317194      -1.386096
H        1.853323      -7.296181      -1.336214
H        4.417262      -2.804299      -2.010804
35

C        2.203765      -0.883027       1.432126
C        1.299821      -0.073232       0.620190
O        0.625633      -1.011314      -0.546278
C        0.092202       0.477618       1.300657
O       -1.033776       0.380844       0.887546
H        1.647790      -1.929773       1.391522
H        2.088151      -0.790531       2.509900
H        3.195727      -1.020943       1.057003
H        1.695843       0.523231      -0.202643
H        0.328212       1.005798       2.238675
H       -0.278758      -0.666492      -0.527166
Sn       0.530459      -3.232467      -0.885547
O        0.769734      -5.153205      -1.029722
O        0.855917      -3.141989       1.129256
O       -1.311471      -3.042968      -1.151078
O        2.586323      -2.950956      -1.014108
O        0.946381      -2.667358      -2.788960
H        3.240938      -3.235030      -0.375490
H        0.592625      -3.161826      -3.526956
Si      -0.085521      -3.546557       2.372058
Si      -1.946531      -2.652723      -2.594722
Si       0.622315      -6.736466      -0.736042
Si       3.069707      -2.636675      -2.619278
H       -0.082093      -4.993213       2.530076
H       -1.441798      -2.989370       2.354880
H        0.763755      -2.876394       3.364387
H       -1.675707      -3.644508      -3.630539
H        2.825129      -3.640395      -3.642461
H       -1.745342      -1.274606      -3.106903
H        2.886143      -1.273272      -3.107821
H       -3.171995      -2.825717      -1.902292
H        0.594469      -6.999978       0.718542
H       -0.573646      -7.317194      -1.386096
H        1.853323      -7.296181      -1.336214
H        4.417262      -2.804299      -2.010804
35

C        2.355283      -1.011275       1.649685
C        1.549354      -0.137129       0.958754
O        0.652357      -1.181565      -0.577064
C        0.321075       0.383182       1.611093
O       -0.796614       0.328126       1.183835
H        1.555188      -2.196308       1.402466
H        2.201553      -1.156481       2.709363
H        3.334769      -1.239185       1.266592
H        1.914420       0.438722       0.119591
H        0.532652       0.863023       2.590065
H       -0.217339      -0.772867      -0.541852
Sn       0.531423      -3.206488      -0.956068
O        0.761741      -5.141833      -1.054800
O        0.900081      -3.139037       1.181443
O       -1.316548      -3.070482      -1.169632
O        2.589333      -2.971160      -1.040901
O        0.947789      -2.663631      -2.865106
H        3.253511      -3.267479      -0.416938
H        0.607492      -3.150142      -3.616546
Si      -0.094996      -3.548923       2.403850
Si      -1.956913      -2.643682      -2.598403
Si       0.627900      -6.720861      -0.741840
Si       3.079738      -2.636508      -2.634453
H       -0.082093      -4.993213       2.530076
H       -1.441798      -2.989370       2.354880
H        0.763755      -2.876394       3.364387
H       -1.675707      -3.644508      -3.630539
H        2.825129      -3.640395      -3.642461
H       -1.745342      -1.274606      -3.106903
H        2.886143      -1.273272      -3.107821
H       -3.171995      -2.825717      -1.902292
H        0.594469      -6.999978       0.718542
H       -0.573646      -7.317194      -1.386096
H        1.853323      -7.296181      -1.336214
H        4.417262      -2.804299      -2.010804
35

C        2.850820      -0.902335       1.843246
C        1.915651      -0.067151       1.407229
O        0.690664      -1.319029      -0.550959
C        0.670971       0.222614       2.151404
O       -0.443022       0.143127       1.709467
H        1.592475      -2.516341       1.413336
H        2.778669      -1.385879       2.809755
H        3.769873      -1.051436       1.309500
H        2.053474       0.499498       0.494944
H        0.850765       0.591204       3.186821
H       -0.151300      -0.895842      -0.387845
Sn       0.518731      -3.192181      -1.043636
O        0.710243      -5.138630      -1.055129
O        1.007444      -3.261663       1.237316
O       -1.336335      -3.092648      -1.184489
O        2.580140      -3.065122      -1.101662
O        0.910202      -2.680751      -2.945283
H        3.230371      -3.415307      -0.499392
H        0.595577      -3.193056      -3.690964
Si      -0.084323      -3.550302       2.440548
Si      -1.966451      -2.636849      -2.613499
Si       0.627706      -6.717846      -0.749895
Si       3.094897      -2.643518      -2.655158
H       -0.082093      -4.993213       2.530076
H       -1.441798      -2.989370       2.354880
H        0.763755      -2.876394       3.364387
H       -1.675707      -3.644508      -3.630539
H        2.825129      -3.640395      -3.642461
H       -1.745342      -1.274606      -3.106903
H        2.886143      -1.273272      -3.107821
H       -3.171995      -2.825717      -1.902292
H        0.594469      -6.999978       0.718542
H       -0.573646      -7.317194      -1.386096
H        1.853323      -7.296181      -1.336214
H        4.417262      -2.804299      -2.010804
35

C        2.888408      -0.959208       1.802161
C        1.916179      -0.131310       1.477371
O        0.690973      -1.345428      -0.531071
C        0.706624       0.053747       2.294254
O       -0.416506      -0.166622       1.919519
H        1.571366      -2.556218       1.398567
H        2.879364      -1.510397       2.732768
H        3.762669      -1.050096       1.190079
H        1.968255       0.444067       0.566713
H        0.889277       0.408176       3.323403
H       -0.162282      -0.941041      -0.330757
Sn       0.516211      -3.206501      -1.062960
O        0.740830      -5.150405      -1.059645
O        0.966873      -3.299368       1.217412
O       -1.334538      -3.116203      -1.192522
O        2.584254      -3.068669      -1.100218
O        0.902494      -2.681859      -2.934266
H        3.219135      -3.447615      -0.487623
H        0.572322      -3.153786      -3.694515
Si      -0.105594      -3.575541       2.426688
Si      -1.965502      -2.640092      -2.603411
Si       0.618120      -6.725279      -0.750097
Si       3.099212      -2.646056      -2.650388
H       -0.082093      -4.993213       2.530076
H       -1.441798      -2.989370       2.354880
H        0.763755      -2.876394       3.364387
H       -1.675707      -3.644508      -3.630539
H        2.825129      -3.640395      -3.642461
H       -1.745342      -1.274606      -3.106903
H        2.886143      -1.273272      -3.107821
H       -3.171995      -2.825717      -1.902292
H        0.594469      -6.999978       0.718542
H       -0.573646      -7.317194      -1.386096
H        1.853323      -7.296181      -1.336214
H        4.417262      -2.804299      -2.010804
35

C        2.887106      -0.950795       1.803090
C        1.902738      -0.115991       1.505370
O        0.664582      -1.325836      -0.521910
C        0.692109       0.058508       2.333629
O       -0.433450      -0.167155       1.978187
H        1.584853      -2.552365       1.397382
H        2.887035      -1.534330       2.711577
H        3.752391      -1.039530       1.173461
H        1.934604       0.482033       0.607526
H        0.897618       0.442471       3.351696
H       -0.181486      -0.935109      -0.306037
Sn       0.511492      -3.193260      -1.054780
O        0.746588      -5.132419      -1.035135
O        0.991018      -3.287154       1.225296
O       -1.336432      -3.102708      -1.193148
O        2.581243      -3.035042      -1.090527
O        0.910776      -2.679362      -2.937579
H        3.215463      -3.415570      -0.485054
H        0.568615      -3.148112      -3.700492
Si      -0.094317      -3.563605       2.430815
Si      -1.967303      -2.643510      -2.609205
Si       0.625783      -6.714389      -0.747561
Si       3.099663      -2.636592      -2.648480
H       -0.082093      -4.993213       2.530076
H       -1.441798      -2.989370       2.354880
H        0.763755      -2.876394       3.364387
H       -1.675707      -3.644508      -3.630539
H        2.825129      -3.640395      -3.642461
H       -1.745342      -1.274606      -3.106903
H        2.886143      -1.273272      -3.107821
H       -3.171995      -2.825717      -1.902292
H        0.594469      -6.999978       0.718542
H       -0.573646      -7.317194      -1.386096
H        1.853323      -7.296181      -1.336214
H        4.417262      -2.804299      -2.010804
35

C        2.826422      -0.742462       1.795599
C        1.790870       0.034518       1.519539
O        0.686938      -1.325906      -0.559168
C        0.553523       0.080333       2.318397
O       -0.535201      -0.240888       1.929130
H        1.583878      -2.554309       1.341861
H        2.853316      -1.371465       2.669164
H        3.695228      -0.755105       1.163946
H        1.787752       0.662996       0.637828
H        0.695968       0.462213       3.349433
H       -0.143305      -0.926096      -0.294790
Sn       0.511182      -3.180985      -1.083644
O        0.753334      -5.125251      -1.035697
O        0.977321      -3.292714       1.206486
O       -1.339342      -3.114826      -1.189857
O        2.585608      -3.061478      -1.091652
O        0.911744      -2.685880      -2.960488
H        3.215087      -3.482890      -0.506626
H        0.587437      -3.178949      -3.715809
Si      -0.090485      -3.544878       2.427683
Si      -1.965362      -2.641391      -2.608003
Si       0.626563      -6.703759      -0.742365
Si       3.100702      -2.637112      -2.645090
H       -0.082093      -4.993213       2.530076
H       -1.441798      -2.989370       2.354880
H        0.763755      -2.876394       3.364387
H       -1.675707      -3.644508      -3.630539
H        2.825129      -3.640395      -3.642461
H       -1.745342      -1.274606      -3.106903
H        2.886143      -1.273272      -3.107821
H       -3.171995      -2.825717      -1.902292
H        0.594469      -6.999978       0.718542
H       -0.573646      -7.317194      -1.386096
H        1.853323      -7.296181      -1.336214
H        4.417262      -2.804299      -2.010804
35

C        2.738963      -0.127954       1.645046
C        1.594415       0.459873       1.347669
O        0.707219      -1.346480      -0.550702
C        0.376784       0.322073       2.164083
O       -0.624089      -0.252417       1.827951
H        1.580958      -2.648251       1.316742
H        2.843918      -0.742032       2.525953
H        3.604582      -0.028545       1.012501
H        1.494793       1.056183       0.449098
H        0.430721       0.821100       3.156286
H       -0.115445      -0.970080      -0.224842
Sn       0.513216      -3.181822      -1.118477
O        0.735337      -5.136556      -1.071713
O        0.949730      -3.348617       1.199099
O       -1.335551      -3.135476      -1.193222
O        2.592469      -3.127063      -1.102204
O        0.898099      -2.680426      -2.980327
H        3.207651      -3.579048      -0.522710
H        0.575080      -3.205725      -3.713342
Si      -0.107826      -3.580616       2.427852
Si      -1.965492      -2.648637      -2.604647
Si       0.620786      -6.709393      -0.745543
Si       3.112435      -2.633800      -2.640575
H       -0.082093      -4.993213       2.530076
H       -1.441798      -2.989370       2.354880
H        0.763755      -2.876394       3.364387
H       -1.675707      -3.644508      -3.630539
H        2.825129      -3.640395      -3.642461
H       -1.745342      -1.274606      -3.106903
H        2.886143      -1.273272      -3.107821
H       -3.171995      -2.825717      -1.902292
H        0.594469      -6.999978       0.718542
H       -0.573646      -7.317194      -1.386096
H        1.853323      -7.296181      -1.336214
H        4.417262      -2.804299      -2.010804
35

C        2.578344       0.726494       0.897384
C        1.348551       1.125129       0.644839
O        0.765757      -1.350907      -0.618120
C        0.218579       1.023373       1.593353
O       -0.594167       0.138752       1.603775
H        1.591881      -2.613434       1.330156
H        2.852659       0.303257       1.855847
H        3.353800       0.774677       0.156498
H        1.076128       1.566662      -0.297773
H        0.147369       1.859320       2.312493
H        0.010780      -0.884052      -0.249265
Sn       0.525089      -3.165668      -1.169869
O        0.766174      -5.131583      -1.068918
O        0.911896      -3.274914       1.167576
O       -1.321525      -3.167862      -1.196659
O        2.587017      -3.159826      -1.141826
O        0.864706      -2.656278      -3.033582
H        3.198532      -3.622526      -0.561297
H        0.454925      -3.115594      -3.772480
Si      -0.106647      -3.553566       2.423064
Si      -1.968905      -2.657753      -2.595572
Si       0.623852      -6.700956      -0.751343
Si       3.117976      -2.636083      -2.662964
H       -0.082093      -4.993213       2.530076
H       -1.441798      -2.989370       2.354880
H        0.763755      -2.876394       3.364387
H       -1.675707      -3.644508      -3.630539
H        2.825129      -3.640395      -3.642461
H       -1.745342      -1.274606      -3.106903
H        2.886143      -1.273272      -3.107821
H       -3.171995      -2.825717      -1.902292
H        0.594469      -6.999978       0.718542
H       -0.573646      -7.317194      -1.386096
H        1.853323      -7.296181      -1.336214
H        4.417262      -2.804299      -2.010804
[GEOCONV]
energy
0.0
5.924623235921899
28.587697610419127
41.87425081321271
65.64706136360473
51.30615910467168
50.9473274625052
50.67337164765922
49.93588193637697
50.26490204815491
52.917510895917076
max-force
0.0
0.009478029848552448
0.009105486458335754
0.004298457643726861
0.0012996726902661207
0.005608479280603939
0.0052104608361120235
0.002354891624503012
0.0038861250989058464
0.004878190765451145
0.007994599871659853
max-step
1000.0
1000.0
1000.0
1000.0
1000.0
1000.0
1000.0
1000.0
1000.0
1000.0
1000.0
