[Molden Format]
[Geometries] (XYZ)
35

C        2.231623      -0.307277       0.904913
C        0.824437       0.009431       0.407263
O        0.387969      -0.905723      -0.567920
C       -0.185414       0.023984       1.538559
O       -1.215181      -0.585628       1.466526
H        2.241802      -1.281897       1.385859
H        2.548254       0.451709       1.619508
H        2.920029      -0.317461       0.062572
H        0.821889       1.023148      -0.033954
H        0.084672       0.652911       2.408952
H       -0.539955      -1.132932      -0.370441
Sn       0.650343      -3.213015      -0.817507
O        0.719776      -5.185442      -0.998507
O        0.728504      -3.153995       1.116875
O       -1.210829      -2.951316      -1.212978
O        2.638930      -2.777652      -0.894669
O        1.075897      -2.636053      -2.739789
H        3.192331      -2.983511      -0.148635
H        0.547753      -3.073336      -3.403658
Si      -0.104144      -3.544001       2.432707
Si      -1.957145      -2.634720      -2.601108
Si       0.628636      -6.772292      -0.734218
Si       3.022511      -2.634673      -2.599394
H       -0.082093      -4.993213       2.530076
H       -1.441798      -2.989370       2.354880
H        0.763755      -2.876394       3.364387
H       -1.675707      -3.644508      -3.630539
H        2.825129      -3.640395      -3.642461
H       -1.745342      -1.274606      -3.106903
H        2.886143      -1.273272      -3.107821
H       -3.171995      -2.825717      -1.902292
H        0.594469      -6.999978       0.718542
H       -0.573646      -7.317194      -1.386096
H        1.853323      -7.296181      -1.336214
H        4.417262      -2.804299      -2.010804
35

C        2.431000      -0.488984       0.903774
C        1.041141      -0.033234       0.535377
O        0.503181      -0.919268      -0.470130
C        0.167905      -0.052953       1.746309
O       -0.840066      -0.717795       1.786165
H        2.085862      -2.018853       1.441486
H        2.845597       0.059451       1.756470
H        3.108526      -0.528209       0.058628
H        1.000195       0.953393       0.056390
H        0.541885       0.548057       2.565805
H       -0.437479      -1.029858      -0.263692
Sn       0.669987      -3.149428      -0.839624
O        0.683921      -5.185264      -0.994457
O        0.868925      -3.120130       1.196372
O       -1.271052      -2.911780      -1.170264
O        2.680829      -2.806729      -0.913184
O        1.081615      -2.561685      -2.799092
H        3.251238      -3.036483      -0.182159
H        0.532365      -2.957555      -3.483901
Si      -0.109186      -3.558820       2.406242
Si      -1.959918      -2.623936      -2.589942
Si       0.622693      -6.766858      -0.734690
Si       3.039816      -2.625155      -2.614415
H       -0.082093      -4.993213       2.530076
H       -1.441798      -2.989370       2.354880
H        0.763755      -2.876394       3.364387
H       -1.675707      -3.644508      -3.630539
H        2.825129      -3.640395      -3.642461
H       -1.745342      -1.274606      -3.106903
H        2.886143      -1.273272      -3.107821
H       -3.171995      -2.825717      -1.902292
H        0.594469      -6.999978       0.718542
H       -0.573646      -7.317194      -1.386096
H        1.853323      -7.296181      -1.336214
H        4.417262      -2.804299      -2.010804
35

C        2.507603      -0.473546       0.896034
C        1.112221      -0.046155       0.655082
O        0.497713      -0.938355      -0.355321
C        0.383383      -0.175911       1.941352
O       -0.556203      -0.915025       2.111308
H        1.811247      -2.471823       1.404661
H        2.986132      -0.051600       1.773615
H        3.145777      -0.464492       0.017813
H        0.978185       0.925596       0.168472
H        0.826501       0.429177       2.753500
H       -0.432565      -1.037887      -0.105450
Sn       0.637834      -3.128282      -0.862267
O        0.612916      -5.208524      -1.029986
O        0.993511      -3.126069       1.261248
O       -1.348902      -2.922886      -1.120920
O        2.714413      -2.839957      -0.963847
O        1.049138      -2.466866      -2.838150
H        3.321865      -3.097299      -0.264557
H        0.478096      -2.803754      -3.532420
Si      -0.074495      -3.567183       2.438632
Si      -1.973290      -2.615654      -2.582465
Si       0.602633      -6.774391      -0.732035
Si       3.044645      -2.642978      -2.621979
H       -0.082093      -4.993213       2.530076
H       -1.441798      -2.989370       2.354880
H        0.763755      -2.876394       3.364387
H       -1.675707      -3.644508      -3.630539
H        2.825129      -3.640395      -3.642461
H       -1.745342      -1.274606      -3.106903
H        2.886143      -1.273272      -3.107821
H       -3.171995      -2.825717      -1.902292
H        0.594469      -6.999978       0.718542
H       -0.573646      -7.317194      -1.386096
H        1.853323      -7.296181      -1.336214
H        4.417262      -2.804299      -2.010804
35

C        2.774336      -0.310328       1.125799
C        1.512423       0.121070       1.011187
O        0.551786      -1.169294      -0.534260
C        0.713781      -0.075037       2.266985
O       -0.152090      -0.909318       2.410732
H        1.594130      -2.531402       1.351001
H        3.291682      -0.300314       2.065235
H        3.426460      -0.274885       0.259087
H        1.213361       0.966698       0.400772
H        0.967447       0.580668       3.132293
H       -0.356914      -1.152387      -0.267286
Sn       0.628718      -3.134682      -0.958204
O        0.671386      -5.148379      -1.007480
O        0.891802      -3.130803       1.173733
O       -1.290677      -3.010340      -1.204408
O        2.645625      -2.905549      -0.966466
O        1.055342      -2.564109      -2.874020
H        3.235380      -3.172599      -0.268561
H        0.516979      -2.917122      -3.583291
Si      -0.099664      -3.522073       2.479548
Si      -1.975040      -2.635806      -2.602754
Si       0.628783      -6.736846      -0.738443
Si       3.035996      -2.641373      -2.631614
H       -0.082093      -4.993213       2.530076
H       -1.441798      -2.989370       2.354880
H        0.763755      -2.876394       3.364387
H       -1.675707      -3.644508      -3.630539
H        2.825129      -3.640395      -3.642461
H       -1.745342      -1.274606      -3.106903
H        2.886143      -1.273272      -3.107821
H       -3.171995      -2.825717      -1.902292
H        0.594469      -6.999978       0.718542
H       -0.573646      -7.317194      -1.386096
H        1.853323      -7.296181      -1.336214
H        4.417262      -2.804299      -2.010804
35

C        3.121785      -0.258787       1.302612
C        1.870643       0.255790       1.397105
O        0.547721      -1.210712      -0.623314
C        1.003153       0.028020       2.575364
O        0.166852      -0.837637       2.631112
H        1.425764      -2.485275       1.287124
H        3.632888      -0.690598       2.146860
H        3.686409      -0.142256       0.385719
H        1.488591       1.008509       0.703350
H        1.177042       0.745212       3.410091
H       -0.331163      -1.033113      -0.283250
Sn       0.620232      -3.125864      -1.022748
O        0.706243      -5.150113      -0.954553
O        0.771297      -3.129045       1.147126
O       -1.303765      -3.129781      -1.156653
O        2.660564      -2.985288      -0.979739
O        1.047621      -2.641094      -2.940466
H        3.216852      -3.291132      -0.262256
H        0.546818      -3.034438      -3.647728
Si      -0.115413      -3.549175       2.445496
Si      -1.938754      -2.652450      -2.579216
Si       0.628283      -6.739225      -0.723531
Si       3.054129      -2.647636      -2.632936
H       -0.082093      -4.993213       2.530076
H       -1.441798      -2.989370       2.354880
H        0.763755      -2.876394       3.364387
H       -1.675707      -3.644508      -3.630539
H        2.825129      -3.640395      -3.642461
H       -1.745342      -1.274606      -3.106903
H        2.886143      -1.273272      -3.107821
H       -3.171995      -2.825717      -1.902292
H        0.594469      -6.999978       0.718542
H       -0.573646      -7.317194      -1.386096
H        1.853323      -7.296181      -1.336214
H        4.417262      -2.804299      -2.010804
35

C        3.063869      -0.250880       1.245445
C        1.879264       0.326163       1.459029
O        0.595017      -1.173334      -0.677561
C        0.968202       0.091183       2.606305
O        0.173262      -0.803263       2.629868
H        1.312592      -2.414812       1.202962
H        3.500066      -0.848108       2.048543
H        3.694051      -0.109846       0.389505
H        1.505375       1.071356       0.767741
H        1.077818       0.811546       3.447777
H       -0.267620      -0.926058      -0.378350
Sn       0.614730      -3.127119      -1.044023
O        0.718596      -5.162754      -0.975155
O        0.705405      -3.168876       1.114270
O       -1.296974      -3.143399      -1.198719
O        2.634607      -2.977743      -0.991505
O        1.021315      -2.681462      -2.961756
H        3.172176      -3.288067      -0.278393
H        0.533693      -3.104587      -3.660629
Si      -0.095255      -3.556547       2.470674
Si      -1.956867      -2.659968      -2.581331
Si       0.619898      -6.744298      -0.753714
Si       3.040354      -2.634833      -2.646254
H       -0.082093      -4.993213       2.530076
H       -1.441798      -2.989370       2.354880
H        0.763755      -2.876394       3.364387
H       -1.675707      -3.644508      -3.630539
H        2.825129      -3.640395      -3.642461
H       -1.745342      -1.274606      -3.106903
H        2.886143      -1.273272      -3.107821
H       -3.171995      -2.825717      -1.902292
H        0.594469      -6.999978       0.718542
H       -0.573646      -7.317194      -1.386096
H        1.853323      -7.296181      -1.336214
H        4.417262      -2.804299      -2.010804
35

C        2.958222      -0.249756       0.635286
C        1.923613       0.288494       1.263934
O        0.560141      -1.095224      -0.556278
C        1.174298       0.023713       2.498801
O        0.639641      -1.037011       2.689157
H        1.347808      -2.363777       0.974144
H        3.249965      -0.892985       1.488178
H        3.652528      -0.332270      -0.167039
H        1.456462       1.054852       0.711551
H        1.168491       0.812021       3.273507
H       -0.356186      -0.990777      -0.319942
Sn       0.703444      -3.134487      -0.987281
O        0.879542      -5.130342      -0.994226
O        0.790982      -3.154109       0.998071
O       -1.177884      -3.189579      -1.085985
O        2.741558      -2.955612      -1.013967
O        1.091341      -2.771450      -2.957640
H        3.335953      -3.266020      -0.323397
H        0.647118      -3.286089      -3.606999
Si      -0.194537      -3.502054       2.230708
Si      -1.881712      -2.723854      -2.503854
Si       0.709496      -6.731035      -0.680742
Si       3.077165      -2.648862      -2.669778
H       -0.082093      -4.993213       2.530076
H       -1.441798      -2.989370       2.354880
H        0.763755      -2.876394       3.364387
H       -1.675707      -3.644508      -3.630539
H        2.825129      -3.640395      -3.642461
H       -1.745342      -1.274606      -3.106903
H        2.886143      -1.273272      -3.107821
H       -3.171995      -2.825717      -1.902292
H        0.594469      -6.999978       0.718542
H       -0.573646      -7.317194      -1.386096
H        1.853323      -7.296181      -1.336214
H        4.417262      -2.804299      -2.010804
35

C        2.878963      -0.153198       0.583339
C        1.896171       0.359966       1.252738
O        0.529483      -1.044037      -0.507487
C        1.158218       0.031148       2.513088
O        0.784562      -1.084267       2.844126
H        1.369355      -2.353037       0.987634
H        3.081061      -0.747726       1.471555
H        3.601782      -0.297513      -0.174760
H        1.403553       1.194346       0.702607
H        1.070913       0.874569       3.250778
H       -0.427751      -1.015892      -0.338504
Sn       0.746059      -3.122332      -1.016664
O        0.929340      -5.141855      -1.047574
O        0.854151      -3.115816       1.037177
O       -1.169801      -3.154009      -1.132038
O        2.786593      -2.946391      -1.058052
O        1.146638      -2.790580      -2.978794
H        3.366482      -3.254506      -0.377143
H        0.713207      -3.366108      -3.638162
Si      -0.195698      -3.432328       2.117800
Si      -1.942014      -2.702716      -2.487948
Si       0.734142      -6.709883      -0.752220
Si       3.193093      -2.662269      -2.723729
H       -0.082093      -4.993213       2.530076
H       -1.441798      -2.989370       2.354880
H        0.763755      -2.876394       3.364387
H       -1.675707      -3.644508      -3.630539
H        2.825129      -3.640395      -3.642461
H       -1.745342      -1.274606      -3.106903
H        2.886143      -1.273272      -3.107821
H       -3.171995      -2.825717      -1.902292
H        0.594469      -6.999978       0.718542
H       -0.573646      -7.317194      -1.386096
H        1.853323      -7.296181      -1.336214
H        4.417262      -2.804299      -2.010804
35

C        2.929129      -0.111741       0.694603
C        1.942226       0.334781       1.367201
O        0.549146      -1.065290      -0.389108
C        1.192107      -0.043455       2.590860
O        0.950630      -1.192110       2.895209
H        1.421125      -2.314982       1.011882
H        3.027373      -0.709781       1.624875
H        3.702030      -0.256827      -0.037258
H        1.465311       1.188011       0.837132
H        1.021185       0.815146       3.285535
H       -0.450083      -1.086001      -0.259354
Sn       0.736162      -3.102773      -0.955612
O        0.875635      -5.105394      -1.017694
O        0.879122      -3.096022       1.052176
O       -1.207812      -3.098463      -1.054525
O        2.805797      -2.941041      -1.054744
O        1.117910      -2.782921      -2.925112
H        3.468163      -3.244536      -0.419122
H        0.654512      -3.355261      -3.529421
Si      -0.277667      -3.366474       2.144846
Si      -1.958088      -2.651806      -2.443601
Si       0.719558      -6.685979      -0.669951
Si       3.134168      -2.664260      -2.753782
H       -0.082093      -4.993213       2.530076
H       -1.441798      -2.989370       2.354880
H        0.763755      -2.876394       3.364387
H       -1.675707      -3.644508      -3.630539
H        2.825129      -3.640395      -3.642461
H       -1.745342      -1.274606      -3.106903
H        2.886143      -1.273272      -3.107821
H       -3.171995      -2.825717      -1.902292
H        0.594469      -6.999978       0.718542
H       -0.573646      -7.317194      -1.386096
H        1.853323      -7.296181      -1.336214
H        4.417262      -2.804299      -2.010804
35

C        2.891632      -0.486503       1.733975
C        1.828145       0.083816       1.153943
O        0.557924      -1.150279      -0.481123
C        0.421451      -0.394690       1.224849
O        0.088884      -1.282399       2.032184
H        1.542010      -2.637744       1.266558
H        2.791221      -1.305877       2.424652
H        3.900642      -0.142736       1.542103
H        1.962607       0.898088       0.446650
H       -0.304625       0.372612       0.914497
H       -0.337425      -1.018294      -0.785904
Sn       0.620513      -3.201382      -0.884203
O        0.676619      -5.187824      -1.010185
O        1.020259      -3.421681       1.125967
O       -1.265656      -3.067959      -1.191903
O        2.654330      -3.056847      -0.964557
O        1.019508      -2.667697      -2.818898
H        3.216908      -3.426490      -0.287215
H        0.595272      -3.239429      -3.454360
Si      -0.088236      -3.480935       2.420927
Si      -1.949497      -2.648959      -2.587534
Si       0.627808      -6.773300      -0.738381
Si       3.037353      -2.649092      -2.609124
H       -0.082093      -4.993213       2.530076
H       -1.441798      -2.989370       2.354880
H        0.763755      -2.876394       3.364387
H       -1.675707      -3.644508      -3.630539
H        2.825129      -3.640395      -3.642461
H       -1.745342      -1.274606      -3.106903
H        2.886143      -1.273272      -3.107821
H       -3.171995      -2.825717      -1.902292
H        0.594469      -6.999978       0.718542
H       -0.573646      -7.317194      -1.386096
H        1.853323      -7.296181      -1.336214
H        4.417262      -2.804299      -2.010804
35

C        2.836842      -0.452086       1.756144
C        1.804129       0.107352       1.143664
O        0.555107      -1.162679      -0.495993
C        0.396449      -0.376946       1.204378
O        0.026259      -1.258317       2.000768
H        1.522468      -2.631550       1.281649
H        2.705327      -1.253234       2.472898
H        3.852404      -0.119582       1.601235
H        1.961696       0.910612       0.431814
H       -0.337263       0.357136       0.827350
H       -0.339572      -1.036433      -0.807901
Sn       0.614241      -3.197943      -0.880599
O        0.676221      -5.187073      -1.004001
O        1.016690      -3.430156       1.134730
O       -1.268590      -3.080296      -1.199484
O        2.648966      -3.045554      -0.957841
O        1.022960      -2.672324      -2.819784
H        3.212486      -3.408003      -0.282997
H        0.615421      -3.258344      -3.454214
Si      -0.095980      -3.487713       2.420549
Si      -1.948966      -2.646653      -2.593799
Si       0.627976      -6.774522      -0.737284
Si       3.027827      -2.648306      -2.603147
H       -0.082093      -4.993213       2.530076
H       -1.441798      -2.989370       2.354880
H        0.763755      -2.876394       3.364387
H       -1.675707      -3.644508      -3.630539
H        2.825129      -3.640395      -3.642461
H       -1.745342      -1.274606      -3.106903
H        2.886143      -1.273272      -3.107821
H       -3.171995      -2.825717      -1.902292
H        0.594469      -6.999978       0.718542
H       -0.573646      -7.317194      -1.386096
H        1.853323      -7.296181      -1.336214
H        4.417262      -2.804299      -2.010804
[GEOCONV]
energy
0.0
59.22192928024742
71.9000850276716
71.47429273591115
54.46560119222704
50.90308597573312
102.04240701553499
143.74900973624608
182.66228311282612
35.15573008505453
34.64733289189462
max-force
0.0
0.011601907615986463
0.013371045538709598
0.008566368401263425
0.008871579702642731
0.009619169451447779
0.037674936133102244
0.05460292650623149
0.08018276284566293
0.005056591562457245
0.0020829068019000054
max-step
1000.0
1000.0
1000.0
1000.0
1000.0
1000.0
1000.0
1000.0
1000.0
1000.0
1000.0
