[Molden Format]
[Geometries] (XYZ)
35

C        2.171975      -0.115727       0.908331
C        0.776561       0.267913       0.431064
O        0.309334      -0.604106      -0.561027
C       -0.204452       0.289100       1.578794
O       -1.282078      -0.233491       1.512497
H        2.133566      -1.110169       1.341397
H        2.526832       0.595658       1.648125
H        2.845976      -0.125994       0.057404
H        0.807346       1.293510       0.017577
H        0.135818       0.831600       2.477625
H       -0.632511      -0.753598      -0.369290
Sn       0.567360      -3.332966      -0.800497
O        0.750469      -5.192874      -1.129062
O        0.763286      -3.119235       1.082353
O       -1.230851      -2.944397      -1.147984
O        2.580572      -2.826661      -0.943997
O        1.026874      -2.612787      -2.695027
H        3.262085      -3.012539      -0.294883
H        0.636776      -3.037736      -3.461179
Si      -0.095298      -3.540242       2.387065
Si      -1.938836      -2.636291      -2.580763
Si       0.628507      -6.761477      -0.737922
Si       3.039240      -2.632330      -2.598778
H       -0.082093      -4.993213       2.530076
H       -1.441798      -2.989370       2.354880
H        0.763755      -2.876394       3.364387
H       -1.675707      -3.644508      -3.630539
H        2.825129      -3.640395      -3.642461
H       -1.745342      -1.274606      -3.106903
H        2.886143      -1.273272      -3.107821
H       -3.171995      -2.825717      -1.902292
H        0.594469      -6.999978       0.718542
H       -0.573646      -7.317194      -1.386096
H        1.853323      -7.296181      -1.336214
H        4.417262      -2.804299      -2.010804
35

C        2.230570      -0.378711       1.103651
C        0.940704       0.170557       0.546791
O        0.429461      -0.735074      -0.533367
C       -0.144572       0.273641       1.584636
O       -1.253688      -0.158379       1.428756
H        1.996260      -1.436231       1.410655
H        2.563063       0.118238       2.012816
H        3.006470      -0.397794       0.349346
H        1.053695       1.132338       0.019534
H        0.157806       0.791473       2.511498
H       -0.530702      -0.733694      -0.371933
Sn       0.557544      -3.301294      -0.824609
O        0.745382      -5.183301      -1.106558
O        0.793064      -3.133097       1.103669
O       -1.257537      -2.976469      -1.150869
O        2.585515      -2.862553      -0.964323
O        1.003698      -2.619928      -2.719317
H        3.264567      -3.079890      -0.322794
H        0.620496      -3.050818      -3.484429
Si      -0.093450      -3.569985       2.383301
Si      -1.944879      -2.654651      -2.590978
Si       0.616919      -6.756984      -0.745148
Si       3.050365      -2.642972      -2.606831
H       -0.082093      -4.993213       2.530076
H       -1.441798      -2.989370       2.354880
H        0.763755      -2.876394       3.364387
H       -1.675707      -3.644508      -3.630539
H        2.825129      -3.640395      -3.642461
H       -1.745342      -1.274606      -3.106903
H        2.886143      -1.273272      -3.107821
H       -3.171995      -2.825717      -1.902292
H        0.594469      -6.999978       0.718542
H       -0.573646      -7.317194      -1.386096
H        1.853323      -7.296181      -1.336214
H        4.417262      -2.804299      -2.010804
35

C        2.253796      -0.655059       1.294029
C        1.125353       0.049548       0.647533
O        0.540675      -0.892836      -0.529850
C       -0.046933       0.300593       1.547136
O       -1.180202      -0.000222       1.286611
H        1.815908      -1.747321       1.431818
H        2.451614      -0.392523       2.331708
H        3.136691      -0.715734       0.678549
H        1.355027       0.900652      -0.005962
H        0.218931       0.802213       2.494371
H       -0.410327      -0.723838      -0.414729
Sn       0.547741      -3.263576      -0.856564
O        0.749744      -5.168627      -1.079038
O        0.827743      -3.135102       1.127785
O       -1.282651      -3.007539      -1.154957
O        2.589617      -2.897804      -0.990303
O        0.978227      -2.632554      -2.753153
H        3.261772      -3.147000      -0.353711
H        0.605237      -3.080683      -3.512254
Si      -0.088824      -3.571323       2.385573
Si      -1.948664      -2.663263      -2.599404
Si       0.614373      -6.746359      -0.746712
Si       3.063292      -2.645689      -2.617162
H       -0.082093      -4.993213       2.530076
H       -1.441798      -2.989370       2.354880
H        0.763755      -2.876394       3.364387
H       -1.675707      -3.644508      -3.630539
H        2.825129      -3.640395      -3.642461
H       -1.745342      -1.274606      -3.106903
H        2.886143      -1.273272      -3.107821
H       -3.171995      -2.825717      -1.902292
H        0.594469      -6.999978       0.718542
H       -0.573646      -7.317194      -1.386096
H        1.853323      -7.296181      -1.336214
H        4.417262      -2.804299      -2.010804
35

C        2.244577      -0.898409       1.410824
C        1.312496      -0.083284       0.651301
O        0.616326      -1.022251      -0.541067
C        0.115404       0.421492       1.384101
O       -1.021665       0.319979       0.995032
H        1.676245      -1.960109       1.384372
H        2.196538      -0.818264       2.491494
H        3.220946      -1.033561       0.991351
H        1.670382       0.555616      -0.155658
H        0.360030       0.932597       2.325194
H       -0.291294      -0.684841      -0.503343
Sn       0.532668      -3.236495      -0.892189
O        0.759523      -5.161394      -1.046428
O        0.862799      -3.147489       1.125687
O       -1.303040      -3.042344      -1.151735
O        2.583196      -2.947875      -1.016734
O        0.941630      -2.673900      -2.794543
H        3.248492      -3.229783      -0.383323
H        0.594683      -3.172430      -3.536115
Si      -0.086296      -3.548663       2.369651
Si      -1.946767      -2.653525      -2.596953
Si       0.621816      -6.740249      -0.738481
Si       3.064502      -2.637833      -2.625537
H       -0.082093      -4.993213       2.530076
H       -1.441798      -2.989370       2.354880
H        0.763755      -2.876394       3.364387
H       -1.675707      -3.644508      -3.630539
H        2.825129      -3.640395      -3.642461
H       -1.745342      -1.274606      -3.106903
H        2.886143      -1.273272      -3.107821
H       -3.171995      -2.825717      -1.902292
H        0.594469      -6.999978       0.718542
H       -0.573646      -7.317194      -1.386096
H        1.853323      -7.296181      -1.336214
H        4.417262      -2.804299      -2.010804
35

C        2.331768      -0.998055       1.632084
C        1.520767      -0.135417       0.937554
O        0.643477      -1.178973      -0.580003
C        0.288885       0.384495       1.585600
O       -0.826507       0.326099       1.152180
H        1.543859      -2.185632       1.395465
H        2.183570      -1.138356       2.693680
H        3.315452      -1.214144       1.250551
H        1.882403       0.444558       0.100061
H        0.496315       0.869660       2.561079
H       -0.228767      -0.775429      -0.547696
Sn       0.527134      -3.206557      -0.953273
O        0.757994      -5.143279      -1.051853
O        0.895167      -3.138500       1.183004
O       -1.320331      -3.067376      -1.168623
O        2.589355      -2.971696      -1.037840
O        0.949800      -2.661520      -2.863687
H        3.254674      -3.265573      -0.413159
H        0.608001      -3.147996      -3.615547
Si      -0.095108      -3.550236       2.407533
Si      -1.957558      -2.643128      -2.598452
Si       0.624635      -6.724146      -0.744309
Si       3.076387      -2.636989      -2.633058
H       -0.082093      -4.993213       2.530076
H       -1.441798      -2.989370       2.354880
H        0.763755      -2.876394       3.364387
H       -1.675707      -3.644508      -3.630539
H        2.825129      -3.640395      -3.642461
H       -1.745342      -1.274606      -3.106903
H        2.886143      -1.273272      -3.107821
H       -3.171995      -2.825717      -1.902292
H        0.594469      -6.999978       0.718542
H       -0.573646      -7.317194      -1.386096
H        1.853323      -7.296181      -1.336214
H        4.417262      -2.804299      -2.010804
35

C        2.904066      -1.012326       1.805263
C        1.982892      -0.141113       1.406855
O        0.683417      -1.333234      -0.506954
C        0.784067       0.174713       2.192297
O       -0.349325       0.147284       1.790276
H        1.605463      -2.569946       1.410252
H        2.835532      -1.508532       2.759238
H        3.786768      -1.200895       1.221834
H        2.120783       0.417756       0.498018
H        1.009496       0.489228       3.230004
H       -0.155412      -0.891455      -0.387897
Sn       0.522613      -3.192101      -1.045954
O        0.705225      -5.137636      -1.051044
O        1.000143      -3.291509       1.228209
O       -1.326113      -3.101058      -1.188952
O        2.589373      -3.086945      -1.094821
O        0.910576      -2.650299      -2.934132
H        3.239255      -3.451484      -0.496940
H        0.609447      -3.143372      -3.701461
Si      -0.092386      -3.563637       2.431178
Si      -1.957760      -2.652628      -2.608837
Si       0.610286      -6.713930      -0.747067
Si       3.096305      -2.636879      -2.646227
H       -0.082093      -4.993213       2.530076
H       -1.441798      -2.989370       2.354880
H        0.763755      -2.876394       3.364387
H       -1.675707      -3.644508      -3.630539
H        2.825129      -3.640395      -3.642461
H       -1.745342      -1.274606      -3.106903
H        2.886143      -1.273272      -3.107821
H       -3.171995      -2.825717      -1.902292
H        0.594469      -6.999978       0.718542
H       -0.573646      -7.317194      -1.386096
H        1.853323      -7.296181      -1.336214
H        4.417262      -2.804299      -2.010804
35

C        2.810495      -0.957865       1.738171
C        1.854450      -0.123862       1.358216
O        0.660832      -1.322341      -0.561832
C        0.638147       0.132118       2.152326
O       -0.486081       0.004807       1.753856
H        1.553801      -2.530738       1.357974
H        2.783269      -1.456459       2.695430
H        3.709361      -1.086573       1.152678
H        1.944665       0.438752       0.442260
H        0.850968       0.465907       3.191027
H       -0.191000      -0.910700      -0.399939
Sn       0.509103      -3.187941      -1.067333
O        0.720428      -5.127048      -1.059885
O        0.966249      -3.276261       1.212307
O       -1.345295      -3.121801      -1.195724
O        2.591835      -3.074537      -1.087566
O        0.927487      -2.657802      -2.950960
H        3.271994      -3.422998      -0.505564
H        0.636208      -3.145044      -3.724867
Si      -0.102433      -3.557434       2.428493
Si      -1.971203      -2.664535      -2.617442
Si       0.614677      -6.710549      -0.749922
Si       3.087053      -2.642551      -2.651032
H       -0.082093      -4.993213       2.530076
H       -1.441798      -2.989370       2.354880
H        0.763755      -2.876394       3.364387
H       -1.675707      -3.644508      -3.630539
H        2.825129      -3.640395      -3.642461
H       -1.745342      -1.274606      -3.106903
H        2.886143      -1.273272      -3.107821
H       -3.171995      -2.825717      -1.902292
H        0.594469      -6.999978       0.718542
H       -0.573646      -7.317194      -1.386096
H        1.853323      -7.296181      -1.336214
H        4.417262      -2.804299      -2.010804
35

C        2.816167      -0.998294       1.777368
C        1.869762      -0.151956       1.405386
O        0.675543      -1.325838      -0.531132
C        0.660275       0.102227       2.209552
O       -0.479957      -0.054931       1.844974
H        1.566638      -2.525704       1.380494
H        2.783223      -1.515327       2.725784
H        3.707834      -1.127271       1.185173
H        1.958578       0.425075       0.490144
H        0.874292       0.461309       3.229807
H       -0.176636      -0.911592      -0.354022
Sn       0.516482      -3.181534      -1.053347
O        0.726072      -5.135573      -1.066722
O        0.963793      -3.279744       1.221797
O       -1.331860      -3.105668      -1.180481
O        2.586516      -3.063250      -1.081189
O        0.926510      -2.651493      -2.933876
H        3.231533      -3.431783      -0.483762
H        0.610585      -3.143533      -3.695197
Si      -0.114049      -3.563275       2.429164
Si      -1.965153      -2.646186      -2.602311
Si       0.620795      -6.711783      -0.749932
Si       3.085349      -2.634614      -2.645517
H       -0.082093      -4.993213       2.530076
H       -1.441798      -2.989370       2.354880
H        0.763755      -2.876394       3.364387
H       -1.675707      -3.644508      -3.630539
H        2.825129      -3.640395      -3.642461
H       -1.745342      -1.274606      -3.106903
H        2.886143      -1.273272      -3.107821
H       -3.171995      -2.825717      -1.902292
H        0.594469      -6.999978       0.718542
H       -0.573646      -7.317194      -1.386096
H        1.853323      -7.296181      -1.336214
H        4.417262      -2.804299      -2.010804
35

C        2.856161      -0.764140       1.813445
C        1.826296       0.017025       1.515796
O        0.693725      -1.330102      -0.552234
C        0.586232       0.065579       2.308385
O       -0.512158      -0.211183       1.902797
H        1.575770      -2.571078       1.328001
H        2.864464      -1.386790       2.692018
H        3.732987      -0.786988       1.191904
H        1.840813       0.636477       0.631559
H        0.729078       0.414253       3.351735
H       -0.138851      -0.922389      -0.297089
Sn       0.516353      -3.179374      -1.083834
O        0.745584      -5.133161      -1.050431
O        0.976609      -3.307966       1.207666
O       -1.330769      -3.114420      -1.187449
O        2.583118      -3.070892      -1.093980
O        0.910959      -2.680285      -2.960159
H        3.211058      -3.494577      -0.507404
H        0.583554      -3.187087      -3.706593
Si      -0.098211      -3.556691       2.424547
Si      -1.960903      -2.641669      -2.602863
Si       0.622292      -6.707331      -0.743755
Si       3.101357      -2.636067      -2.645701
H       -0.082093      -4.993213       2.530076
H       -1.441798      -2.989370       2.354880
H        0.763755      -2.876394       3.364387
H       -1.675707      -3.644508      -3.630539
H        2.825129      -3.640395      -3.642461
H       -1.745342      -1.274606      -3.106903
H        2.886143      -1.273272      -3.107821
H       -3.171995      -2.825717      -1.902292
H        0.594469      -6.999978       0.718542
H       -0.573646      -7.317194      -1.386096
H        1.853323      -7.296181      -1.336214
H        4.417262      -2.804299      -2.010804
35

C        2.775383      -0.240206       1.723452
C        1.648321       0.382337       1.423180
O        0.706938      -1.345771      -0.546390
C        0.407796       0.250446       2.211289
O       -0.613966      -0.249507       1.824966
H        1.603789      -2.647343       1.316561
H        2.865201      -0.878862       2.586008
H        3.645072      -0.156444       1.094159
H        1.567128       0.995129       0.536447
H        0.477440       0.669291       3.240958
H       -0.108168      -0.948272      -0.228154
Sn       0.508232      -3.179268      -1.114274
O        0.741076      -5.131897      -1.073133
O        0.972069      -3.355660       1.202451
O       -1.338017      -3.129866      -1.191736
O        2.587640      -3.113127      -1.106824
O        0.897670      -2.671154      -2.984268
H        3.206805      -3.573629      -0.537362
H        0.572198      -3.196015      -3.719928
Si      -0.101910      -3.562762       2.427766
Si      -1.964489      -2.645451      -2.605968
Si       0.622111      -6.703698      -0.744617
Si       3.108144      -2.636221      -2.646399
H       -0.082093      -4.993213       2.530076
H       -1.441798      -2.989370       2.354880
H        0.763755      -2.876394       3.364387
H       -1.675707      -3.644508      -3.630539
H        2.825129      -3.640395      -3.642461
H       -1.745342      -1.274606      -3.106903
H        2.886143      -1.273272      -3.107821
H       -3.171995      -2.825717      -1.902292
H        0.594469      -6.999978       0.718542
H       -0.573646      -7.317194      -1.386096
H        1.853323      -7.296181      -1.336214
H        4.417262      -2.804299      -2.010804
35

C        2.578344       0.726494       0.897384
C        1.348551       1.125129       0.644839
O        0.765757      -1.350907      -0.618120
C        0.218579       1.023373       1.593353
O       -0.594167       0.138752       1.603775
H        1.591881      -2.613434       1.330156
H        2.852659       0.303257       1.855847
H        3.353800       0.774677       0.156498
H        1.076128       1.566662      -0.297773
H        0.147369       1.859320       2.312493
H        0.010780      -0.884052      -0.249265
Sn       0.525089      -3.165668      -1.169869
O        0.766174      -5.131583      -1.068918
O        0.911896      -3.274914       1.167576
O       -1.321525      -3.167862      -1.196659
O        2.587017      -3.159826      -1.141826
O        0.864706      -2.656278      -3.033582
H        3.198532      -3.622526      -0.561297
H        0.454925      -3.115594      -3.772480
Si      -0.106647      -3.553566       2.423064
Si      -1.968905      -2.657753      -2.595572
Si       0.623852      -6.700956      -0.751343
Si       3.117976      -2.636083      -2.662964
H       -0.082093      -4.993213       2.530076
H       -1.441798      -2.989370       2.354880
H        0.763755      -2.876394       3.364387
H       -1.675707      -3.644508      -3.630539
H        2.825129      -3.640395      -3.642461
H       -1.745342      -1.274606      -3.106903
H        2.886143      -1.273272      -3.107821
H       -3.171995      -2.825717      -1.902292
H        0.594469      -6.999978       0.718542
H       -0.573646      -7.317194      -1.386096
H        1.853323      -7.296181      -1.336214
H        4.417262      -2.804299      -2.010804
[GEOCONV]
energy
0.0
5.835259557548852
23.92415458168398
43.23775755292445
65.74321641380811
50.951454872287286
51.14888569674076
51.21214139722724
49.50573789945338
49.58507238911261
52.917510895917076
max-force
0.0
0.009478029848552448
0.009105486458335754
0.005974021318480535
0.001081557469265122
0.0038064152708718
0.004564335281943378
0.0039325002815820825
0.002205665827595853
0.0015401696052776183
0.007994599871659853
max-step
1000.0
1000.0
1000.0
1000.0
1000.0
1000.0
1000.0
1000.0
1000.0
1000.0
1000.0
