[Molden Format]
[Geometries] (XYZ)
35

C        2.171975      -0.115727       0.908331
C        0.776561       0.267913       0.431064
O        0.309334      -0.604106      -0.561027
C       -0.204452       0.289100       1.578794
O       -1.282078      -0.233491       1.512497
H        2.133566      -1.110169       1.341397
H        2.526832       0.595658       1.648125
H        2.845976      -0.125994       0.057404
H        0.807346       1.293510       0.017577
H        0.135818       0.831600       2.477625
H       -0.632511      -0.753598      -0.369290
Sn       0.567360      -3.332966      -0.800497
O        0.750469      -5.192874      -1.129062
O        0.763286      -3.119235       1.082353
O       -1.230851      -2.944397      -1.147984
O        2.580572      -2.826661      -0.943997
O        1.026874      -2.612787      -2.695027
H        3.262085      -3.012539      -0.294883
H        0.636776      -3.037736      -3.461179
Si      -0.095298      -3.540242       2.387065
Si      -1.938836      -2.636291      -2.580763
Si       0.628507      -6.761477      -0.737922
Si       3.039240      -2.632330      -2.598778
H       -0.082093      -4.993213       2.530076
H       -1.441798      -2.989370       2.354880
H        0.763755      -2.876394       3.364387
H       -1.675707      -3.644508      -3.630539
H        2.825129      -3.640395      -3.642461
H       -1.745342      -1.274606      -3.106903
H        2.886143      -1.273272      -3.107821
H       -3.171995      -2.825717      -1.902292
H        0.594469      -6.999978       0.718542
H       -0.573646      -7.317194      -1.386096
H        1.853323      -7.296181      -1.336214
H        4.417262      -2.804299      -2.010804
35

C        2.230175      -0.372078       1.106284
C        0.955936       0.177465       0.536680
O        0.432652      -0.739803      -0.539600
C       -0.139467       0.311763       1.559462
O       -1.255256      -0.101329       1.393275
H        1.989935      -1.432994       1.411341
H        2.544384       0.117256       2.025602
H        3.020205      -0.393807       0.366654
H        1.084392       1.121304      -0.016747
H        0.160140       0.834865       2.483121
H       -0.528037      -0.729475      -0.388079
Sn       0.555523      -3.301986      -0.828337
O        0.745921      -5.185222      -1.103802
O        0.796068      -3.137826       1.106316
O       -1.258555      -2.980463      -1.151292
O        2.584954      -2.870390      -0.970105
O        1.000164      -2.626240      -2.725176
H        3.263461      -3.090960      -0.328652
H        0.618661      -3.063491      -3.488110
Si      -0.092730      -3.572080       2.385836
Si      -1.942620      -2.654157      -2.591596
Si       0.616079      -6.758646      -0.743081
Si       3.048721      -2.643366      -2.611492
H       -0.082093      -4.993213       2.530076
H       -1.441798      -2.989370       2.354880
H        0.763755      -2.876394       3.364387
H       -1.675707      -3.644508      -3.630539
H        2.825129      -3.640395      -3.642461
H       -1.745342      -1.274606      -3.106903
H        2.886143      -1.273272      -3.107821
H       -3.171995      -2.825717      -1.902292
H        0.594469      -6.999978       0.718542
H       -0.573646      -7.317194      -1.386096
H        1.853323      -7.296181      -1.336214
H        4.417262      -2.804299      -2.010804
35

C        2.257730      -0.626385       1.282590
C        1.139942       0.066911       0.623657
O        0.536468      -0.887424      -0.535073
C       -0.035121       0.359397       1.505792
O       -1.173265       0.081649       1.232813
H        1.829595      -1.718051       1.429129
H        2.434490      -0.361119       2.322886
H        3.152858      -0.691216       0.682958
H        1.380748       0.884741      -0.064117
H        0.228552       0.872404       2.444293
H       -0.414214      -0.713587      -0.433400
Sn       0.544378      -3.268507      -0.861355
O        0.749212      -5.173519      -1.075584
O        0.829985      -3.144686       1.125830
O       -1.282155      -3.013261      -1.152036
O        2.586774      -2.910111      -0.997534
O        0.972283      -2.646360      -2.762578
H        3.258330      -3.163417      -0.360561
H        0.601886      -3.106923      -3.516963
Si      -0.090263      -3.574565       2.383986
Si      -1.944811      -2.660061      -2.595570
Si       0.613706      -6.750737      -0.743154
Si       3.058073      -2.646223      -2.622902
H       -0.082093      -4.993213       2.530076
H       -1.441798      -2.989370       2.354880
H        0.763755      -2.876394       3.364387
H       -1.675707      -3.644508      -3.630539
H        2.825129      -3.640395      -3.642461
H       -1.745342      -1.274606      -3.106903
H        2.886143      -1.273272      -3.107821
H       -3.171995      -2.825717      -1.902292
H        0.594469      -6.999978       0.718542
H       -0.573646      -7.317194      -1.386096
H        1.853323      -7.296181      -1.336214
H        4.417262      -2.804299      -2.010804
35

C        2.174269      -0.898981       1.385056
C        1.263381      -0.093275       0.578050
O        0.596388      -1.027661      -0.517453
C        0.083822       0.507161       1.254182
O       -1.054827       0.446434       0.854215
H        1.637289      -1.925274       1.361103
H        2.117030      -0.802468       2.469275
H        3.155729      -0.989129       0.965856
H        1.664805       0.484277      -0.254454
H        0.338098       1.046117       2.164716
H       -0.317080      -0.674386      -0.517178
Sn       0.505791      -3.227093      -0.891220
O        0.752040      -5.138394      -1.026429
O        0.845562      -3.134119       1.109689
O       -1.330123      -3.032618      -1.142033
O        2.564203      -2.946988      -1.017840
O        0.906376      -2.702967      -2.796951
H        3.211140      -3.238317      -0.376258
H        0.552534      -3.207290      -3.526615
Si      -0.076368      -3.525175       2.365225
Si      -1.953858      -2.636566      -2.595750
Si       0.630768      -6.721776      -0.727309
Si       3.059793      -2.637497      -2.612910
H       -0.082093      -4.993213       2.530076
H       -1.441798      -2.989370       2.354880
H        0.763755      -2.876394       3.364387
H       -1.675707      -3.644508      -3.630539
H        2.825129      -3.640395      -3.642461
H       -1.745342      -1.274606      -3.106903
H        2.886143      -1.273272      -3.107821
H       -3.171995      -2.825717      -1.902292
H        0.594469      -6.999978       0.718542
H       -0.573646      -7.317194      -1.386096
H        1.853323      -7.296181      -1.336214
H        4.417262      -2.804299      -2.010804
35

C        2.294935      -0.992500       1.637964
C        1.513901      -0.127220       0.908836
O        0.649379      -1.170346      -0.586250
C        0.287098       0.440680       1.523809
O       -0.822594       0.403454       1.077086
H        1.530233      -2.171648       1.398533
H        2.115876      -1.106216       2.697414
H        3.285768      -1.222584       1.289108
H        1.909901       0.433314       0.072529
H        0.494399       0.940906       2.493102
H       -0.219876      -0.758477      -0.575708
Sn       0.528236      -3.201189      -0.957448
O        0.755927      -5.139571      -1.054103
O        0.892574      -3.125133       1.178889
O       -1.320244      -3.067136      -1.166507
O        2.589311      -2.976701      -1.039538
O        0.949943      -2.662365      -2.865360
H        3.252178      -3.271338      -0.413658
H        0.605071      -3.148165      -3.615193
Si      -0.093882      -3.548274       2.404080
Si      -1.957053      -2.643965      -2.598908
Si       0.626075      -6.720368      -0.742543
Si       3.079270      -2.637591      -2.633664
H       -0.082093      -4.993213       2.530076
H       -1.441798      -2.989370       2.354880
H        0.763755      -2.876394       3.364387
H       -1.675707      -3.644508      -3.630539
H        2.825129      -3.640395      -3.642461
H       -1.745342      -1.274606      -3.106903
H        2.886143      -1.273272      -3.107821
H       -3.171995      -2.825717      -1.902292
H        0.594469      -6.999978       0.718542
H       -0.573646      -7.317194      -1.386096
H        1.853323      -7.296181      -1.336214
H        4.417262      -2.804299      -2.010804
35

C        2.803864      -1.048859       1.797252
C        1.893360      -0.153895       1.428457
O        0.665168      -1.316106      -0.511646
C        0.660317       0.117783       2.208423
O       -0.462628       0.055620       1.779717
H        1.598205      -2.521623       1.382090
H        2.731716      -1.571387       2.738255
H        3.689052      -1.225575       1.208195
H        2.023598       0.418934       0.526574
H        0.854206       0.401964       3.262665
H       -0.174385      -0.869958      -0.389044
Sn       0.505581      -3.180730      -1.043240
O        0.742343      -5.129676      -1.029668
O        0.985801      -3.266156       1.213771
O       -1.335610      -3.121056      -1.188410
O        2.583113      -3.057498      -1.079998
O        0.917951      -2.656910      -2.934486
H        3.228451      -3.414958      -0.468784
H        0.590325      -3.162250      -3.679468
Si      -0.099589      -3.552490       2.412634
Si      -1.964704      -2.654125      -2.604835
Si       0.624558      -6.713697      -0.743670
Si       3.093608      -2.638718      -2.648677
H       -0.082093      -4.993213       2.530076
H       -1.441798      -2.989370       2.354880
H        0.763755      -2.876394       3.364387
H       -1.675707      -3.644508      -3.630539
H        2.825129      -3.640395      -3.642461
H       -1.745342      -1.274606      -3.106903
H        2.886143      -1.273272      -3.107821
H       -3.171995      -2.825717      -1.902292
H        0.594469      -6.999978       0.718542
H       -0.573646      -7.317194      -1.386096
H        1.853323      -7.296181      -1.336214
H        4.417262      -2.804299      -2.010804
35

C        2.898422      -1.127897       1.799205
C        2.006571      -0.217810       1.444778
O        0.688433      -1.337462      -0.522787
C        0.813787       0.085480       2.264561
O       -0.318438       0.058256       1.868059
H        1.601589      -2.583252       1.407117
H        2.840615      -1.648667       2.734867
H        3.759335      -1.322313       1.174735
H        2.133663       0.353989       0.540100
H        1.040079       0.346673       3.329004
H       -0.158422      -0.899677      -0.398709
Sn       0.520356      -3.194711      -1.054884
O        0.709365      -5.137221      -1.053097
O        0.988309      -3.292664       1.218451
O       -1.328856      -3.104686      -1.203671
O        2.585581      -3.092507      -1.096650
O        0.911494      -2.683470      -2.945757
H        3.236959      -3.447319      -0.480109
H        0.591855      -3.184972      -3.695762
Si      -0.106105      -3.558864       2.414241
Si      -1.970464      -2.653233      -2.615975
Si       0.629872      -6.723935      -0.752063
Si       3.094088      -2.643068      -2.647166
H       -0.082093      -4.993213       2.530076
H       -1.441798      -2.989370       2.354880
H        0.763755      -2.876394       3.364387
H       -1.675707      -3.644508      -3.630539
H        2.825129      -3.640395      -3.642461
H       -1.745342      -1.274606      -3.106903
H        2.886143      -1.273272      -3.107821
H       -3.171995      -2.825717      -1.902292
H        0.594469      -6.999978       0.718542
H       -0.573646      -7.317194      -1.386096
H        1.853323      -7.296181      -1.336214
H        4.417262      -2.804299      -2.010804
35

C        2.886221      -1.071861       1.802182
C        1.985589      -0.161337       1.431144
O        0.687121      -1.315322      -0.525591
C        0.786456       0.144762       2.228754
O       -0.339130       0.125453       1.809302
H        1.619294      -2.544988       1.419661
H        2.826775      -1.588327       2.747061
H        3.757428      -1.268981       1.201371
H        2.124380       0.413403       0.527469
H        0.994962       0.402937       3.289003
H       -0.146672      -0.860900      -0.383631
Sn       0.514279      -3.169370      -1.050667
O        0.716000      -5.118949      -1.050247
O        0.997906      -3.279908       1.230925
O       -1.338604      -3.090840      -1.186883
O        2.586956      -3.065387      -1.089030
O        0.919609      -2.640455      -2.927395
H        3.236450      -3.421702      -0.483653
H        0.607553      -3.145302      -3.680504
Si      -0.096425      -3.555118       2.422970
Si      -1.971364      -2.645383      -2.606846
Si       0.626613      -6.699035      -0.743311
Si       3.098360      -2.637976      -2.646396
H       -0.082093      -4.993213       2.530076
H       -1.441798      -2.989370       2.354880
H        0.763755      -2.876394       3.364387
H       -1.675707      -3.644508      -3.630539
H        2.825129      -3.640395      -3.642461
H       -1.745342      -1.274606      -3.106903
H        2.886143      -1.273272      -3.107821
H       -3.171995      -2.825717      -1.902292
H        0.594469      -6.999978       0.718542
H       -0.573646      -7.317194      -1.386096
H        1.853323      -7.296181      -1.336214
H        4.417262      -2.804299      -2.010804
35

C        2.868120      -0.713966       1.824090
C        1.820678       0.031207       1.509925
O        0.690625      -1.343572      -0.532662
C        0.572602       0.033762       2.301195
O       -0.521061      -0.223133       1.872036
H        1.568981      -2.603500       1.301707
H        2.883326      -1.345670       2.695452
H        3.748726      -0.718306       1.202578
H        1.821522       0.642045       0.625014
H        0.716198       0.296309       3.371059
H       -0.143862      -0.932199      -0.292341
Sn       0.505033      -3.186249      -1.090042
O        0.743128      -5.135949      -1.059271
O        0.964879      -3.336825       1.197365
O       -1.336076      -3.129797      -1.192880
O        2.586279      -3.087765      -1.094579
O        0.895731      -2.695503      -2.971143
H        3.210096      -3.516098      -0.502790
H        0.573472      -3.229456      -3.699733
Si      -0.106374      -3.559098       2.424969
Si      -1.967154      -2.648082      -2.606905
Si       0.627714      -6.711815      -0.743475
Si       3.099471      -2.638070      -2.646055
H       -0.082093      -4.993213       2.530076
H       -1.441798      -2.989370       2.354880
H        0.763755      -2.876394       3.364387
H       -1.675707      -3.644508      -3.630539
H        2.825129      -3.640395      -3.642461
H       -1.745342      -1.274606      -3.106903
H        2.886143      -1.273272      -3.107821
H       -3.171995      -2.825717      -1.902292
H        0.594469      -6.999978       0.718542
H       -0.573646      -7.317194      -1.386096
H        1.853323      -7.296181      -1.336214
H        4.417262      -2.804299      -2.010804
35

C        2.714573      -0.058189       1.660028
C        1.562448       0.495607       1.341102
O        0.712579      -1.348398      -0.521910
C        0.328727       0.327933       2.140171
O       -0.671257      -0.233936       1.771900
H        1.577291      -2.638628       1.286658
H        2.844491      -0.666884       2.536028
H        3.583684       0.065031       1.029308
H        1.458935       1.080869       0.444237
H        0.377380       0.784182       3.153148
H       -0.112263      -0.968330      -0.214917
Sn       0.506977      -3.180294      -1.107962
O        0.743755      -5.135467      -1.072731
O        0.946027      -3.355609       1.204634
O       -1.335384      -3.129786      -1.188974
O        2.600442      -3.111056      -1.099416
O        0.888605      -2.674884      -2.985964
H        3.214853      -3.565989      -0.517643
H        0.550397      -3.202579      -3.706246
Si      -0.111554      -3.572944       2.440209
Si      -1.968858      -2.647778      -2.601688
Si       0.619790      -6.707660      -0.744111
Si       3.112022      -2.634936      -2.647804
H       -0.082093      -4.993213       2.530076
H       -1.441798      -2.989370       2.354880
H        0.763755      -2.876394       3.364387
H       -1.675707      -3.644508      -3.630539
H        2.825129      -3.640395      -3.642461
H       -1.745342      -1.274606      -3.106903
H        2.886143      -1.273272      -3.107821
H       -3.171995      -2.825717      -1.902292
H        0.594469      -6.999978       0.718542
H       -0.573646      -7.317194      -1.386096
H        1.853323      -7.296181      -1.336214
H        4.417262      -2.804299      -2.010804
35

C        2.578344       0.726494       0.897384
C        1.348551       1.125129       0.644839
O        0.765757      -1.350907      -0.618120
C        0.218579       1.023373       1.593353
O       -0.594167       0.138752       1.603775
H        1.591881      -2.613434       1.330156
H        2.852659       0.303257       1.855847
H        3.353800       0.774677       0.156498
H        1.076128       1.566662      -0.297773
H        0.147369       1.859320       2.312493
H        0.010780      -0.884052      -0.249265
Sn       0.525089      -3.165668      -1.169869
O        0.766174      -5.131583      -1.068918
O        0.911896      -3.274914       1.167576
O       -1.321525      -3.167862      -1.196659
O        2.587017      -3.159826      -1.141826
O        0.864706      -2.656278      -3.033582
H        3.198532      -3.622526      -0.561297
H        0.454925      -3.115594      -3.772480
Si      -0.106647      -3.553566       2.423064
Si      -1.968905      -2.657753      -2.595572
Si       0.623852      -6.700956      -0.751343
Si       3.117976      -2.636083      -2.662964
H       -0.082093      -4.993213       2.530076
H       -1.441798      -2.989370       2.354880
H        0.763755      -2.876394       3.364387
H       -1.675707      -3.644508      -3.630539
H        2.825129      -3.640395      -3.642461
H       -1.745342      -1.274606      -3.106903
H        2.886143      -1.273272      -3.107821
H       -3.171995      -2.825717      -1.902292
H        0.594469      -6.999978       0.718542
H       -0.573646      -7.317194      -1.386096
H        1.853323      -7.296181      -1.336214
H        4.417262      -2.804299      -2.010804
[GEOCONV]
energy
0.0
6.640488984528929
23.791047517464904
40.49433136182779
65.60205992642295
51.17774231403746
51.198351449202164
50.929142534252605
48.924192905840755
49.8870801088342
52.917510895917076
max-force
0.0
0.009478029848552448
0.009105486458335754
0.008891876530560726
0.0009585833727187324
0.002937085775038752
0.004995286246286783
0.0025993678787095617
0.0021800862916803196
0.003511041746948292
0.007994599871659853
max-step
1000.0
1000.0
1000.0
1000.0
1000.0
1000.0
1000.0
1000.0
1000.0
1000.0
1000.0
