[Molden Format]
[Geometries] (XYZ)
35

C        2.171975      -0.115727       0.908331
C        0.776561       0.267913       0.431064
O        0.309334      -0.604106      -0.561027
C       -0.204452       0.289100       1.578794
O       -1.282078      -0.233491       1.512497
H        2.133566      -1.110169       1.341397
H        2.526832       0.595658       1.648125
H        2.845976      -0.125994       0.057404
H        0.807346       1.293510       0.017577
H        0.135818       0.831600       2.477625
H       -0.632511      -0.753598      -0.369290
Sn       0.567360      -3.332966      -0.800497
O        0.750469      -5.192874      -1.129062
O        0.763286      -3.119235       1.082353
O       -1.230851      -2.944397      -1.147984
O        2.580572      -2.826661      -0.943997
O        1.026874      -2.612787      -2.695027
H        3.262085      -3.012539      -0.294883
H        0.636776      -3.037736      -3.461179
Si      -0.095298      -3.540242       2.387065
Si      -1.938836      -2.636291      -2.580763
Si       0.628507      -6.761477      -0.737922
Si       3.039240      -2.632330      -2.598778
H       -0.082093      -4.993213       2.530076
H       -1.441798      -2.989370       2.354880
H        0.763755      -2.876394       3.364387
H       -1.675707      -3.644508      -3.630539
H        2.825129      -3.640395      -3.642461
H       -1.745342      -1.274606      -3.106903
H        2.886143      -1.273272      -3.107821
H       -3.171995      -2.825717      -1.902292
H        0.594469      -6.999978       0.718542
H       -0.573646      -7.317194      -1.386096
H        1.853323      -7.296181      -1.336214
H        4.417262      -2.804299      -2.010804
35

C        2.225044      -0.348255       1.080436
C        0.903673       0.173150       0.564822
O        0.405031      -0.735352      -0.538724
C       -0.153358       0.202164       1.636977
O       -1.248056      -0.277013       1.504988
H        2.015322      -1.442601       1.419717
H        2.599957       0.190107       1.947937
H        2.960987      -0.369557       0.285625
H        0.970622       1.168772       0.100962
H        0.152680       0.712625       2.562801
H       -0.550684      -0.765784      -0.356012
Sn       0.564549      -3.301580      -0.819513
O        0.744190      -5.182869      -1.116481
O        0.789823      -3.120368       1.102322
O       -1.249330      -2.961152      -1.151526
O        2.585669      -2.842726      -0.954800
O        1.015370      -2.605793      -2.717582
H        3.268850      -3.048542      -0.314397
H        0.629843      -3.029667      -3.485823
Si      -0.097385      -3.562294       2.383341
Si      -1.945796      -2.653155      -2.588723
Si       0.619833      -6.755326      -0.748211
Si       3.046860      -2.641729      -2.602135
H       -0.082093      -4.993213       2.530076
H       -1.441798      -2.989370       2.354880
H        0.763755      -2.876394       3.364387
H       -1.675707      -3.644508      -3.630539
H        2.825129      -3.640395      -3.642461
H       -1.745342      -1.274606      -3.106903
H        2.886143      -1.273272      -3.107821
H       -3.171995      -2.825717      -1.902292
H        0.594469      -6.999978       0.718542
H       -0.573646      -7.317194      -1.386096
H        1.853323      -7.296181      -1.336214
H        4.417262      -2.804299      -2.010804
35

C        2.251117      -0.671977       1.274394
C        1.062363       0.007260       0.731049
O        0.512866      -0.942297      -0.539006
C       -0.075559       0.066711       1.704915
O       -1.189676      -0.343595       1.492429
H        1.788155      -1.870269       1.446277
H        2.587518      -0.372246       2.264325
H        3.056078      -0.724506       0.557019
H        1.186441       0.961083       0.216038
H        0.191156       0.535670       2.658785
H       -0.438223      -0.822671      -0.366195
Sn       0.565758      -3.243347      -0.846111
O        0.743994      -5.156322      -1.095866
O        0.833992      -3.089178       1.140974
O       -1.266029      -2.960158      -1.157781
O        2.595029      -2.843712      -0.971282
O        1.001766      -2.586341      -2.748084
H        3.277033      -3.071918      -0.338653
H        0.620768      -3.012447      -3.516217
Si      -0.086101      -3.543163       2.398066
Si      -1.949364      -2.652582      -2.599354
Si       0.619023      -6.730825      -0.748493
Si       3.062339      -2.640574      -2.607470
H       -0.082093      -4.993213       2.530076
H       -1.441798      -2.989370       2.354880
H        0.763755      -2.876394       3.364387
H       -1.675707      -3.644508      -3.630539
H        2.825129      -3.640395      -3.642461
H       -1.745342      -1.274606      -3.106903
H        2.886143      -1.273272      -3.107821
H       -3.171995      -2.825717      -1.902292
H        0.594469      -6.999978       0.718542
H       -0.573646      -7.317194      -1.386096
H        1.853323      -7.296181      -1.336214
H        4.417262      -2.804299      -2.010804
35

C        2.238950      -0.934821       1.450556
C        1.247505      -0.108968       0.767738
O        0.628777      -0.987092      -0.506032
C        0.033109       0.195743       1.570285
O       -1.092974      -0.059747       1.237563
H        1.654069      -1.990975       1.396424
H        2.241646      -0.918858       2.531316
H        3.190918      -1.034576       0.965534
H        1.543651       0.655340       0.053520
H        0.260310       0.671894       2.539577
H       -0.281880      -0.675027      -0.385026
Sn       0.545504      -3.223249      -0.873065
O        0.757028      -5.147957      -1.045406
O        0.861335      -3.119013       1.137164
O       -1.292603      -3.021193      -1.151223
O        2.589132      -2.913194      -0.998211
O        0.976590      -2.605700      -2.767670
H        3.260130      -3.179955      -0.364450
H        0.615047      -3.037447      -3.538293
Si      -0.085905      -3.551905       2.379382
Si      -1.944893      -2.638770      -2.593785
Si       0.624633      -6.727943      -0.736480
Si       3.068731      -2.646332      -2.616021
H       -0.082093      -4.993213       2.530076
H       -1.441798      -2.989370       2.354880
H        0.763755      -2.876394       3.364387
H       -1.675707      -3.644508      -3.630539
H        2.825129      -3.640395      -3.642461
H       -1.745342      -1.274606      -3.106903
H        2.886143      -1.273272      -3.107821
H       -3.171995      -2.825717      -1.902292
H        0.594469      -6.999978       0.718542
H       -0.573646      -7.317194      -1.386096
H        1.853323      -7.296181      -1.336214
H        4.417262      -2.804299      -2.010804
35

C        2.323506      -1.014632       1.634690
C        1.435905      -0.163143       1.013479
O        0.639021      -1.156933      -0.564242
C        0.190272       0.203632       1.736244
O       -0.931127       0.046502       1.349437
H        1.527916      -2.192512       1.398899
H        2.251511      -1.196580       2.695881
H        3.291011      -1.168415       1.185139
H        1.737766       0.527908       0.238302
H        0.391981       0.670450       2.723209
H       -0.250157      -0.798989      -0.481886
Sn       0.539406      -3.208433      -0.943322
O        0.764948      -5.142834      -1.055747
O        0.880750      -3.118450       1.186543
O       -1.309284      -3.057996      -1.174822
O        2.591778      -2.938760      -1.030677
O        0.968539      -2.635686      -2.851832
H        3.261258      -3.216599      -0.403403
H        0.611025      -3.083980      -3.618765
Si      -0.099822      -3.552770       2.413048
Si      -1.957617      -2.643244      -2.600211
Si       0.627290      -6.722697      -0.741172
Si       3.076098      -2.635492      -2.635568
H       -0.082093      -4.993213       2.530076
H       -1.441798      -2.989370       2.354880
H        0.763755      -2.876394       3.364387
H       -1.675707      -3.644508      -3.630539
H        2.825129      -3.640395      -3.642461
H       -1.745342      -1.274606      -3.106903
H        2.886143      -1.273272      -3.107821
H       -3.171995      -2.825717      -1.902292
H        0.594469      -6.999978       0.718542
H       -0.573646      -7.317194      -1.386096
H        1.853323      -7.296181      -1.336214
H        4.417262      -2.804299      -2.010804
35

C        2.644781      -0.997047       1.758269
C        1.672639      -0.152495       1.419984
O        0.661124      -1.282413      -0.569083
C        0.454536       0.042129       2.231800
O       -0.663542      -0.252967       1.900567
H        1.528183      -2.462035       1.415714
H        2.670816      -1.497158       2.714465
H        3.517389      -1.086268       1.140099
H        1.783274       0.548074       0.612769
H        0.629415       0.555289       3.201743
H       -0.209692      -0.907397      -0.393040
Sn       0.534822      -3.216951      -1.009038
O        0.775393      -5.148972      -1.056951
O        0.945549      -3.219448       1.237046
O       -1.316237      -3.089411      -1.210187
O        2.590847      -2.966321      -1.059156
O        0.958350      -2.662086      -2.900144
H        3.250258      -3.290130      -0.438151
H        0.615667      -3.114567      -3.677581
Si      -0.121623      -3.573150       2.438247
Si      -1.973117      -2.640886      -2.620262
Si       0.624341      -6.721962      -0.747628
Si       3.089555      -2.642371      -2.650671
H       -0.082093      -4.993213       2.530076
H       -1.441798      -2.989370       2.354880
H        0.763755      -2.876394       3.364387
H       -1.675707      -3.644508      -3.630539
H        2.825129      -3.640395      -3.642461
H       -1.745342      -1.274606      -3.106903
H        2.886143      -1.273272      -3.107821
H       -3.171995      -2.825717      -1.902292
H        0.594469      -6.999978       0.718542
H       -0.573646      -7.317194      -1.386096
H        1.853323      -7.296181      -1.336214
H        4.417262      -2.804299      -2.010804
35

C        2.772638      -0.915124       1.786530
C        1.788019      -0.098530       1.521904
O        0.672361      -1.317065      -0.584312
C        0.582452       0.038151       2.368732
O       -0.527838      -0.277786       2.038989
H        1.554239      -2.488095       1.356034
H        2.777001      -1.525295       2.680693
H        3.634717      -0.982926       1.155614
H        1.826905       0.578986       0.687133
H        0.769408       0.487806       3.356683
H       -0.186919      -0.938678      -0.365993
Sn       0.516543      -3.213003      -1.057443
O        0.775148      -5.143086      -1.069550
O        0.956601      -3.231155       1.216360
O       -1.328496      -3.104684      -1.223850
O        2.578203      -3.010690      -1.092715
O        0.929821      -2.681249      -2.938497
H        3.227451      -3.343069      -0.469476
H        0.587303      -3.152669      -3.705918
Si      -0.088272      -3.550018       2.449153
Si      -1.967938      -2.632227      -2.632191
Si       0.624508      -6.719881      -0.761110
Si       3.093272      -2.657507      -2.663720
H       -0.082093      -4.993213       2.530076
H       -1.441798      -2.989370       2.354880
H        0.763755      -2.876394       3.364387
H       -1.675707      -3.644508      -3.630539
H        2.825129      -3.640395      -3.642461
H       -1.745342      -1.274606      -3.106903
H        2.886143      -1.273272      -3.107821
H       -3.171995      -2.825717      -1.902292
H        0.594469      -6.999978       0.718542
H       -0.573646      -7.317194      -1.386096
H        1.853323      -7.296181      -1.336214
H        4.417262      -2.804299      -2.010804
35

C        2.768584      -0.857133       1.786994
C        1.742575      -0.052174       1.548141
O        0.687891      -1.310705      -0.575563
C        0.518676       0.016429       2.373929
O       -0.572645      -0.346171       2.029188
H        1.534057      -2.507202       1.354857
H        2.808873      -1.494645       2.654293
H        3.624916      -0.873041       1.130869
H        1.756079       0.639115       0.714990
H        0.672271       0.474284       3.374106
H       -0.152840      -0.925534      -0.323976
Sn       0.523679      -3.194792      -1.055489
O        0.767959      -5.133687      -1.030431
O        0.933119      -3.242622       1.214019
O       -1.327399      -3.100864      -1.193443
O        2.590678      -3.029053      -1.080897
O        0.933560      -2.683854      -2.940567
H        3.244786      -3.383740      -0.478603
H        0.593966      -3.148171      -3.707398
Si      -0.112490      -3.561941       2.436529
Si      -1.967524      -2.645885      -2.608930
Si       0.627194      -6.713445      -0.742183
Si       3.093429      -2.634438      -2.646256
H       -0.082093      -4.993213       2.530076
H       -1.441798      -2.989370       2.354880
H        0.763755      -2.876394       3.364387
H       -1.675707      -3.644508      -3.630539
H        2.825129      -3.640395      -3.642461
H       -1.745342      -1.274606      -3.106903
H        2.886143      -1.273272      -3.107821
H       -3.171995      -2.825717      -1.902292
H        0.594469      -6.999978       0.718542
H       -0.573646      -7.317194      -1.386096
H        1.853323      -7.296181      -1.336214
H        4.417262      -2.804299      -2.010804
35

C        2.771246      -0.556308       1.717740
C        1.678277       0.160123       1.530578
O        0.689822      -1.337658      -0.573432
C        0.478702       0.121377       2.387144
O       -0.555074      -0.419405       2.101916
H        1.563759      -2.544195       1.350039
H        2.878670      -1.221041       2.561229
H        3.600968      -0.496258       1.034548
H        1.609283       0.859160       0.704136
H        0.593160       0.658368       3.353748
H       -0.134519      -0.955684      -0.260518
Sn       0.523796      -3.196670      -1.089895
O        0.768185      -5.140026      -1.028049
O        0.935670      -3.251090       1.206028
O       -1.327560      -3.125021      -1.196008
O        2.590983      -3.065778      -1.097014
O        0.917849      -2.686668      -2.961838
H        3.233035      -3.454653      -0.500376
H        0.550024      -3.130205      -3.726978
Si      -0.119365      -3.564972       2.426733
Si      -1.966909      -2.644147      -2.603815
Si       0.619427      -6.717408      -0.743457
Si       3.111244      -2.640065      -2.652761
H       -0.082093      -4.993213       2.530076
H       -1.441798      -2.989370       2.354880
H        0.763755      -2.876394       3.364387
H       -1.675707      -3.644508      -3.630539
H        2.825129      -3.640395      -3.642461
H       -1.745342      -1.274606      -3.106903
H        2.886143      -1.273272      -3.107821
H       -3.171995      -2.825717      -1.902292
H        0.594469      -6.999978       0.718542
H       -0.573646      -7.317194      -1.386096
H        1.853323      -7.296181      -1.336214
H        4.417262      -2.804299      -2.010804
35

C        2.739167       0.096226       1.344567
C        1.546811       0.637092       1.173480
O        0.719880      -1.319238      -0.593667
C        0.418766       0.482623       2.111504
O       -0.517025      -0.253590       1.952919
H        1.597833      -2.580927       1.329774
H        2.978737      -0.483493       2.223516
H        3.516597       0.202342       0.611451
H        1.323615       1.223697       0.295246
H        0.478497       1.132619       3.009983
H       -0.093217      -0.957229      -0.235826
Sn       0.512603      -3.172533      -1.128125
O        0.743493      -5.126666      -1.065786
O        0.938275      -3.270444       1.174768
O       -1.335424      -3.125617      -1.201001
O        2.584908      -3.111947      -1.112069
O        0.900733      -2.669028      -2.994981
H        3.209825      -3.539774      -0.522159
H        0.552722      -3.159699      -3.742318
Si      -0.098522      -3.537271       2.421750
Si      -1.969999      -2.653784      -2.614370
Si       0.625950      -6.703766      -0.746162
Si       3.105654      -2.640650      -2.654010
H       -0.082093      -4.993213       2.530076
H       -1.441798      -2.989370       2.354880
H        0.763755      -2.876394       3.364387
H       -1.675707      -3.644508      -3.630539
H        2.825129      -3.640395      -3.642461
H       -1.745342      -1.274606      -3.106903
H        2.886143      -1.273272      -3.107821
H       -3.171995      -2.825717      -1.902292
H        0.594469      -6.999978       0.718542
H       -0.573646      -7.317194      -1.386096
H        1.853323      -7.296181      -1.336214
H        4.417262      -2.804299      -2.010804
35

C        2.578344       0.726494       0.897384
C        1.348551       1.125129       0.644839
O        0.765757      -1.350907      -0.618120
C        0.218579       1.023373       1.593353
O       -0.594167       0.138752       1.603775
H        1.591881      -2.613434       1.330156
H        2.852659       0.303257       1.855847
H        3.353800       0.774677       0.156498
H        1.076128       1.566662      -0.297773
H        0.147369       1.859320       2.312493
H        0.010780      -0.884052      -0.249265
Sn       0.525089      -3.165668      -1.169869
O        0.766174      -5.131583      -1.068918
O        0.911896      -3.274914       1.167576
O       -1.321525      -3.167862      -1.196659
O        2.587017      -3.159826      -1.141826
O        0.864706      -2.656278      -3.033582
H        3.198532      -3.622526      -0.561297
H        0.454925      -3.115594      -3.772480
Si      -0.106647      -3.553566       2.423064
Si      -1.968905      -2.657753      -2.595572
Si       0.623852      -6.700956      -0.751343
Si       3.117976      -2.636083      -2.662964
H       -0.082093      -4.993213       2.530076
H       -1.441798      -2.989370       2.354880
H        0.763755      -2.876394       3.364387
H       -1.675707      -3.644508      -3.630539
H        2.825129      -3.640395      -3.642461
H       -1.745342      -1.274606      -3.106903
H        2.886143      -1.273272      -3.107821
H       -3.171995      -2.825717      -1.902292
H        0.594469      -6.999978       0.718542
H       -0.573646      -7.317194      -1.386096
H        1.853323      -7.296181      -1.336214
H        4.417262      -2.804299      -2.010804
[GEOCONV]
energy
0.0
7.2097008160926634
37.83613938646886
45.81062537503749
67.46406689661671
56.46162745101901
53.43862737512245
51.66814536894526
51.604439367947634
51.597249126280076
52.917510895917076
max-force
0.0
0.009478029848552448
0.009105486458335754
0.005168515790781955
0.001146581669718328
0.004957821895671309
0.016942897209243864
0.0019839224893116706
0.0034150999700285818
0.0036789044703624415
0.007994599871659853
max-step
1000.0
1000.0
1000.0
1000.0
1000.0
1000.0
1000.0
1000.0
1000.0
1000.0
1000.0
