[Molden Format]
[Geometries] (XYZ)
35

C        2.171975      -0.115727       0.908331
C        0.776561       0.267913       0.431064
O        0.309334      -0.604106      -0.561027
C       -0.204452       0.289100       1.578794
O       -1.282078      -0.233491       1.512497
H        2.133566      -1.110169       1.341397
H        2.526832       0.595658       1.648125
H        2.845976      -0.125994       0.057404
H        0.807346       1.293510       0.017577
H        0.135818       0.831600       2.477625
H       -0.632511      -0.753598      -0.369290
Sn       0.567360      -3.332966      -0.800497
O        0.750469      -5.192874      -1.129062
O        0.763286      -3.119235       1.082353
O       -1.230851      -2.944397      -1.147984
O        2.580572      -2.826661      -0.943997
O        1.026874      -2.612787      -2.695027
H        3.262085      -3.012539      -0.294883
H        0.636776      -3.037736      -3.461179
Si      -0.095298      -3.540242       2.387065
Si      -1.938836      -2.636291      -2.580763
Si       0.628507      -6.761477      -0.737922
Si       3.039240      -2.632330      -2.598778
H       -0.082093      -4.993213       2.530076
H       -1.441798      -2.989370       2.354880
H        0.763755      -2.876394       3.364387
H       -1.675707      -3.644508      -3.630539
H        2.825129      -3.640395      -3.642461
H       -1.745342      -1.274606      -3.106903
H        2.886143      -1.273272      -3.107821
H       -3.171995      -2.825717      -1.902292
H        0.594469      -6.999978       0.718542
H       -0.573646      -7.317194      -1.386096
H        1.853323      -7.296181      -1.336214
H        4.417262      -2.804299      -2.010804
35

C        2.225462      -0.371692       1.102656
C        0.959353       0.180857       0.518479
O        0.431078      -0.737276      -0.538139
C       -0.142783       0.352177       1.525783
O       -1.264693      -0.039183       1.351435
H        1.985182      -1.425587       1.403152
H        2.526665       0.111706       2.028348
H        3.025148      -0.391366       0.371519
H        1.106330       1.108465      -0.060343
H        0.156777       0.881883       2.445775
H       -0.532509      -0.719406      -0.398129
Sn       0.550688      -3.301506      -0.830681
O        0.744389      -5.184880      -1.099927
O        0.798702      -3.141189       1.102924
O       -1.262952      -2.982195      -1.148466
O        2.585834      -2.877968      -0.975035
O        0.992790      -2.633538      -2.727891
H        3.261922      -3.103547      -0.333525
H        0.613212      -3.076572      -3.487553
Si      -0.087718      -3.571542       2.385597
Si      -1.942932      -2.651223      -2.590994
Si       0.615531      -6.758147      -0.739681
Si       3.050716      -2.643431      -2.612645
H       -0.082093      -4.993213       2.530076
H       -1.441798      -2.989370       2.354880
H        0.763755      -2.876394       3.364387
H       -1.675707      -3.644508      -3.630539
H        2.825129      -3.640395      -3.642461
H       -1.745342      -1.274606      -3.106903
H        2.886143      -1.273272      -3.107821
H       -3.171995      -2.825717      -1.902292
H        0.594469      -6.999978       0.718542
H       -0.573646      -7.317194      -1.386096
H        1.853323      -7.296181      -1.336214
H        4.417262      -2.804299      -2.010804
35

C        2.239786      -0.633650       1.283828
C        1.137889       0.075222       0.598049
O        0.527046      -0.872844      -0.519153
C       -0.038095       0.442242       1.445551
O       -1.178460       0.204208       1.150915
H        1.824207      -1.702884       1.413251
H        2.394467      -0.385947       2.329971
H        3.147671      -0.682622       0.696616
H        1.424852       0.858270      -0.119108
H        0.226079       0.966091       2.380261
H       -0.425888      -0.682870      -0.443438
Sn       0.529242      -3.264157      -0.866267
O        0.741361      -5.172400      -1.071205
O        0.832954      -3.150033       1.111171
O       -1.296935      -3.013964      -1.146681
O        2.583490      -2.924481      -1.006718
O        0.952991      -2.656638      -2.765221
H        3.245391      -3.192421      -0.366500
H        0.586850      -3.125786      -3.514056
Si      -0.077493      -3.574914       2.379804
Si      -1.949003      -2.656250      -2.597476
Si       0.613147      -6.749264      -0.737596
Si       3.063863      -2.647576      -2.624973
H       -0.082093      -4.993213       2.530076
H       -1.441798      -2.989370       2.354880
H        0.763755      -2.876394       3.364387
H       -1.675707      -3.644508      -3.630539
H        2.825129      -3.640395      -3.642461
H       -1.745342      -1.274606      -3.106903
H        2.886143      -1.273272      -3.107821
H       -3.171995      -2.825717      -1.902292
H        0.594469      -6.999978       0.718542
H       -0.573646      -7.317194      -1.386096
H        1.853323      -7.296181      -1.336214
H        4.417262      -2.804299      -2.010804
35

C        2.211370      -0.894399       1.387922
C        1.286004      -0.079227       0.610524
O        0.578602      -1.032425      -0.521818
C        0.113601       0.526642       1.304537
O       -1.022354       0.460278       0.917725
H        1.671594      -1.944739       1.356129
H        2.166465      -0.855937       2.469480
H        3.182895      -1.018378       0.945522
H        1.675496       0.487016      -0.234146
H        0.387443       1.055510       2.229671
H       -0.323341      -0.679019      -0.519796
Sn       0.502315      -3.232577      -0.905217
O        0.731882      -5.154094      -1.048395
O        0.866026      -3.152216       1.099884
O       -1.330328      -3.051165      -1.137995
O        2.573676      -2.988262      -1.030880
O        0.912063      -2.663085      -2.801793
H        3.223805      -3.283614      -0.393470
H        0.573487      -3.148708      -3.549143
Si      -0.066020      -3.551193       2.362535
Si      -1.951522      -2.638684      -2.593042
Si       0.619028      -6.730228      -0.736152
Si       3.063048      -2.643540      -2.621377
H       -0.082093      -4.993213       2.530076
H       -1.441798      -2.989370       2.354880
H        0.763755      -2.876394       3.364387
H       -1.675707      -3.644508      -3.630539
H        2.825129      -3.640395      -3.642461
H       -1.745342      -1.274606      -3.106903
H        2.886143      -1.273272      -3.107821
H       -3.171995      -2.825717      -1.902292
H        0.594469      -6.999978       0.718542
H       -0.573646      -7.317194      -1.386096
H        1.853323      -7.296181      -1.336214
H        4.417262      -2.804299      -2.010804
35

C        2.282220      -0.990320       1.629258
C        1.520034      -0.121376       0.882015
O        0.647253      -1.169702      -0.587975
C        0.302895       0.482129       1.480521
O       -0.805305       0.466004       1.026931
H        1.525079      -2.166348       1.393878
H        2.093044      -1.088065       2.688320
H        3.279015      -1.224088       1.295396
H        1.936284       0.422044       0.043531
H        0.514444       0.982779       2.447800
H       -0.219659      -0.751931      -0.582896
Sn       0.524133      -3.202774      -0.962166
O        0.751796      -5.142229      -1.066011
O        0.887400      -3.128640       1.176486
O       -1.324854      -3.067529      -1.166813
O        2.589383      -2.987869      -1.041263
O        0.946996      -2.658317      -2.866853
H        3.249439      -3.289829      -0.416261
H        0.615757      -3.155683      -3.615282
Si      -0.092895      -3.552319       2.405618
Si      -1.958699      -2.644531      -2.600852
Si       0.624764      -6.721009      -0.742955
Si       3.079293      -2.638978      -2.633141
H       -0.082093      -4.993213       2.530076
H       -1.441798      -2.989370       2.354880
H        0.763755      -2.876394       3.364387
H       -1.675707      -3.644508      -3.630539
H        2.825129      -3.640395      -3.642461
H       -1.745342      -1.274606      -3.106903
H        2.886143      -1.273272      -3.107821
H       -3.171995      -2.825717      -1.902292
H        0.594469      -6.999978       0.718542
H       -0.573646      -7.317194      -1.386096
H        1.853323      -7.296181      -1.336214
H        4.417262      -2.804299      -2.010804
35

C        2.718603      -0.905618       1.898321
C        1.941069       0.022819       1.350190
O        0.677463      -1.273308      -0.584159
C        0.736033       0.548665       1.996592
O       -0.341747       0.602042       1.473536
H        1.558908      -2.406319       1.478940
H        2.546839      -1.268447       2.901110
H        3.626858      -1.227526       1.425520
H        2.207574       0.469083       0.382589
H        0.876923       0.906271       3.037534
H       -0.162043      -0.815739      -0.609982
Sn       0.536613      -3.161383      -1.048273
O        0.774144      -5.106246      -1.003535
O        0.972732      -3.187019       1.241836
O       -1.324225      -3.112309      -1.183866
O        2.594188      -3.049239      -1.099224
O        0.899670      -2.694542      -2.943492
H        3.238426      -3.409555      -0.494166
H        0.568502      -3.204348      -3.672026
Si      -0.110899      -3.549874       2.423142
Si      -1.962381      -2.642250      -2.597857
Si       0.626330      -6.694252      -0.734229
Si       3.111530      -2.629666      -2.662175
H       -0.082093      -4.993213       2.530076
H       -1.441798      -2.989370       2.354880
H        0.763755      -2.876394       3.364387
H       -1.675707      -3.644508      -3.630539
H        2.825129      -3.640395      -3.642461
H       -1.745342      -1.274606      -3.106903
H        2.886143      -1.273272      -3.107821
H       -3.171995      -2.825717      -1.902292
H        0.594469      -6.999978       0.718542
H       -0.573646      -7.317194      -1.386096
H        1.853323      -7.296181      -1.336214
H        4.417262      -2.804299      -2.010804
35

C        2.891343      -1.086532       1.772488
C        2.042912      -0.144315       1.347789
O        0.719879      -1.337820      -0.516975
C        0.846833       0.240235       2.122673
O       -0.277314       0.280551       1.699928
H        1.618676      -2.568320       1.396655
H        2.793285      -1.556005       2.741175
H        3.748087      -1.366661       1.185827
H        2.186032       0.348672       0.405354
H        1.064784       0.499266       3.178628
H       -0.114207      -0.856716      -0.447720
Sn       0.511328      -3.182960      -1.046255
O        0.733575      -5.129474      -1.025607
O        0.993581      -3.291282       1.217960
O       -1.332057      -3.101062      -1.187659
O        2.584257      -3.100411      -1.100558
O        0.901339      -2.678475      -2.934113
H        3.239445      -3.462895      -0.499958
H        0.593407      -3.191743      -3.680741
Si      -0.089082      -3.554938       2.422755
Si      -1.966273      -2.634646      -2.604723
Si       0.622727      -6.710206      -0.737293
Si       3.097472      -2.640813      -2.637705
H       -0.082093      -4.993213       2.530076
H       -1.441798      -2.989370       2.354880
H        0.763755      -2.876394       3.364387
H       -1.675707      -3.644508      -3.630539
H        2.825129      -3.640395      -3.642461
H       -1.745342      -1.274606      -3.106903
H        2.886143      -1.273272      -3.107821
H       -3.171995      -2.825717      -1.902292
H        0.594469      -6.999978       0.718542
H       -0.573646      -7.317194      -1.386096
H        1.853323      -7.296181      -1.336214
H        4.417262      -2.804299      -2.010804
35

C        2.958085      -1.094403       1.810182
C        2.095278      -0.146625       1.427616
O        0.710661      -1.343149      -0.527122
C        0.907275       0.197096       2.221862
O       -0.207607       0.275661       1.786044
H        1.609385      -2.570231       1.406514
H        2.866417      -1.598883       2.760504
H        3.805215      -1.368384       1.205105
H        2.212182       0.357269       0.481818
H        1.108427       0.385646       3.295615
H       -0.117692      -0.854157      -0.457891
Sn       0.516861      -3.179939      -1.063352
O        0.748016      -5.126296      -1.023756
O        0.996316      -3.294726       1.228606
O       -1.333137      -3.118231      -1.186593
O        2.582378      -3.097891      -1.105402
O        0.895095      -2.686157      -2.949811
H        3.229775      -3.467585      -0.500054
H        0.584145      -3.221621      -3.675142
Si      -0.099347      -3.550625       2.421867
Si      -1.966845      -2.643595      -2.602833
Si       0.625188      -6.707997      -0.736782
Si       3.100850      -2.632478      -2.644394
H       -0.082093      -4.993213       2.530076
H       -1.441798      -2.989370       2.354880
H        0.763755      -2.876394       3.364387
H       -1.675707      -3.644508      -3.630539
H        2.825129      -3.640395      -3.642461
H       -1.745342      -1.274606      -3.106903
H        2.886143      -1.273272      -3.107821
H       -3.171995      -2.825717      -1.902292
H        0.594469      -6.999978       0.718542
H       -0.573646      -7.317194      -1.386096
H        1.853323      -7.296181      -1.336214
H        4.417262      -2.804299      -2.010804
35

C        2.919390      -0.872615       1.833337
C        1.949917      -0.033037       1.491699
O        0.690247      -1.344095      -0.544361
C        0.723100       0.102164       2.293743
O       -0.394596       0.008678       1.858928
H        1.547412      -2.607612       1.329945
H        2.883684      -1.450240       2.740458
H        3.804512      -0.985292       1.216794
H        2.003159       0.552237       0.587746
H        0.891301       0.294657       3.366055
H       -0.135783      -0.894388      -0.378810
Sn       0.505772      -3.192644      -1.105297
O        0.752338      -5.142246      -1.079683
O        0.962066      -3.348218       1.214529
O       -1.343322      -3.151530      -1.202788
O        2.582286      -3.109730      -1.108953
O        0.885609      -2.684073      -2.972542
H        3.210970      -3.532043      -0.518853
H        0.584030      -3.221340      -3.705189
Si      -0.120654      -3.580548       2.421516
Si      -1.969625      -2.661693      -2.617416
Si       0.629602      -6.713739      -0.747704
Si       3.105104      -2.643219      -2.645208
H       -0.082093      -4.993213       2.530076
H       -1.441798      -2.989370       2.354880
H        0.763755      -2.876394       3.364387
H       -1.675707      -3.644508      -3.630539
H        2.825129      -3.640395      -3.642461
H       -1.745342      -1.274606      -3.106903
H        2.886143      -1.273272      -3.107821
H       -3.171995      -2.825717      -1.902292
H        0.594469      -6.999978       0.718542
H       -0.573646      -7.317194      -1.386096
H        1.853323      -7.296181      -1.336214
H        4.417262      -2.804299      -2.010804
35

C        2.788450      -0.131058       1.737791
C        1.651902       0.450394       1.394451
O        0.722201      -1.352779      -0.539980
C        0.407962       0.305249       2.170643
O       -0.618251      -0.167605       1.760922
H        1.578468      -2.607823       1.240190
H        2.870071      -0.752564       2.617648
H        3.671698      -0.042681       1.130320
H        1.582532       1.047941       0.497225
H        0.475218       0.686343       3.213821
H       -0.103098      -0.951648      -0.256406
Sn       0.513406      -3.180586      -1.121301
O        0.749296      -5.137603      -1.083016
O        0.949121      -3.335448       1.187309
O       -1.337595      -3.135933      -1.195549
O        2.593212      -3.118707      -1.117050
O        0.883762      -2.684449      -2.996956
H        3.215936      -3.566670      -0.541605
H        0.551662      -3.221603      -3.717093
Si      -0.101313      -3.549027       2.429623
Si      -1.968855      -2.644022      -2.606114
Si       0.620773      -6.709321      -0.747442
Si       3.111291      -2.640834      -2.658401
H       -0.082093      -4.993213       2.530076
H       -1.441798      -2.989370       2.354880
H        0.763755      -2.876394       3.364387
H       -1.675707      -3.644508      -3.630539
H        2.825129      -3.640395      -3.642461
H       -1.745342      -1.274606      -3.106903
H        2.886143      -1.273272      -3.107821
H       -3.171995      -2.825717      -1.902292
H        0.594469      -6.999978       0.718542
H       -0.573646      -7.317194      -1.386096
H        1.853323      -7.296181      -1.336214
H        4.417262      -2.804299      -2.010804
35

C        2.578344       0.726494       0.897384
C        1.348551       1.125129       0.644839
O        0.765757      -1.350907      -0.618120
C        0.218579       1.023373       1.593353
O       -0.594167       0.138752       1.603775
H        1.591881      -2.613434       1.330156
H        2.852659       0.303257       1.855847
H        3.353800       0.774677       0.156498
H        1.076128       1.566662      -0.297773
H        0.147369       1.859320       2.312493
H        0.010780      -0.884052      -0.249265
Sn       0.525089      -3.165668      -1.169869
O        0.766174      -5.131583      -1.068918
O        0.911896      -3.274914       1.167576
O       -1.321525      -3.167862      -1.196659
O        2.587017      -3.159826      -1.141826
O        0.864706      -2.656278      -3.033582
H        3.198532      -3.622526      -0.561297
H        0.454925      -3.115594      -3.772480
Si      -0.106647      -3.553566       2.423064
Si      -1.968905      -2.657753      -2.595572
Si       0.623852      -6.700956      -0.751343
Si       3.117976      -2.636083      -2.662964
H       -0.082093      -4.993213       2.530076
H       -1.441798      -2.989370       2.354880
H        0.763755      -2.876394       3.364387
H       -1.675707      -3.644508      -3.630539
H        2.825129      -3.640395      -3.642461
H       -1.745342      -1.274606      -3.106903
H        2.886143      -1.273272      -3.107821
H       -3.171995      -2.825717      -1.902292
H        0.594469      -6.999978       0.718542
H       -0.573646      -7.317194      -1.386096
H        1.853323      -7.296181      -1.336214
H        4.417262      -2.804299      -2.010804
[GEOCONV]
energy
0.0
6.140283135595382
21.12798104898684
43.18761239714513
65.40147393828374
52.74533663836337
50.589405213526334
49.69217101395043
49.176975855225464
49.328656521793164
52.917510895917076
max-force
0.0
0.009478029848552448
0.009105486458335754
0.004889099165708983
0.0008452857942603096
0.006005315160703295
0.0038927227192068078
0.003917571530342012
0.007073439347107348
0.0024571837711048353
0.007994599871659853
max-step
1000.0
1000.0
1000.0
1000.0
1000.0
1000.0
1000.0
1000.0
1000.0
1000.0
1000.0
