[Molden Format]
[Geometries] (XYZ)
35

C        2.231623      -0.307277       0.904913
C        0.824437       0.009431       0.407263
O        0.387969      -0.905723      -0.567920
C       -0.185414       0.023984       1.538559
O       -1.215181      -0.585628       1.466526
H        2.241802      -1.281897       1.385859
H        2.548254       0.451709       1.619508
H        2.920029      -0.317461       0.062572
H        0.821889       1.023148      -0.033954
H        0.084672       0.652911       2.408952
H       -0.539955      -1.132932      -0.370441
Sn       0.650343      -3.213015      -0.817507
O        0.719776      -5.185442      -0.998507
O        0.728504      -3.153995       1.116875
O       -1.210829      -2.951316      -1.212978
O        2.638930      -2.777652      -0.894669
O        1.075897      -2.636053      -2.739789
H        3.192331      -2.983511      -0.148635
H        0.547753      -3.073336      -3.403658
Si      -0.104144      -3.544001       2.432707
Si      -1.957145      -2.634720      -2.601108
Si       0.628636      -6.772292      -0.734218
Si       3.022511      -2.634673      -2.599394
H       -0.082093      -4.993213       2.530076
H       -1.441798      -2.989370       2.354880
H        0.763755      -2.876394       3.364387
H       -1.675707      -3.644508      -3.630539
H        2.825129      -3.640395      -3.642461
H       -1.745342      -1.274606      -3.106903
H        2.886143      -1.273272      -3.107821
H       -3.171995      -2.825717      -1.902292
H        0.594469      -6.999978       0.718542
H       -0.573646      -7.317194      -1.386096
H        1.853323      -7.296181      -1.336214
H        4.417262      -2.804299      -2.010804
35

C        2.396431      -0.738855       1.039785
C        1.002908      -0.198414       0.628180
O        0.471784      -0.988805      -0.413659
C        0.092194      -0.239205       1.814073
O       -0.936037      -0.853112       1.816827
H        2.038145      -2.005297       1.421639
H        2.827651      -0.313595       1.943438
H        3.080640      -0.733296       0.215269
H        1.019694       0.810022       0.188149
H        0.448792       0.306880       2.701776
H       -0.476955      -1.082585      -0.226746
Sn       0.611513      -3.163110      -0.827358
O        0.660427      -5.190503      -0.983978
O        0.862815      -3.083070       1.184630
O       -1.287224      -2.921143      -1.166762
O        2.616599      -2.839054      -0.900250
O        1.047667      -2.553259      -2.746218
H        3.173722      -3.075377      -0.179338
H        0.501960      -2.924149      -3.438826
Si      -0.110692      -3.512513       2.415250
Si      -1.972520      -2.638309      -2.606844
Si       0.632671      -6.776433      -0.735080
Si       3.024692      -2.633416      -2.591250
H       -0.082093      -4.993213       2.530076
H       -1.441798      -2.989370       2.354880
H        0.763755      -2.876394       3.364387
H       -1.675707      -3.644508      -3.630539
H        2.825129      -3.640395      -3.642461
H       -1.745342      -1.274606      -3.106903
H        2.886143      -1.273272      -3.107821
H       -3.171995      -2.825717      -1.902292
H        0.594469      -6.999978       0.718542
H       -0.573646      -7.317194      -1.386096
H        1.853323      -7.296181      -1.336214
H        4.417262      -2.804299      -2.010804
35

C        2.526347      -0.741254       1.087298
C        1.166179      -0.152649       0.788528
O        0.515650      -0.922453      -0.275423
C        0.423959      -0.269007       2.071962
O       -0.586904      -0.908933       2.236090
H        1.803746      -2.429839       1.422058
H        2.961024      -0.372785       2.031262
H        3.217305      -0.734375       0.220080
H        1.148106       0.902743       0.402976
H        0.945466       0.247202       2.908975
H       -0.431238      -1.002118      -0.030343
Sn       0.630627      -3.141650      -0.849402
O        0.643560      -5.228038      -1.035628
O        1.008329      -3.083538       1.286831
O       -1.368892      -2.887124      -1.130794
O        2.755194      -2.849247      -0.929530
O        1.089236      -2.456617      -2.845847
H        3.341446      -3.088123      -0.246203
H        0.544448      -2.781739      -3.540588
Si      -0.104260      -3.546204       2.419726
Si      -1.969576      -2.598917      -2.567515
Si       0.618798      -6.827704      -0.727456
Si       3.079533      -2.615244      -2.625217
H       -0.082093      -4.993213       2.530076
H       -1.441798      -2.989370       2.354880
H        0.763755      -2.876394       3.364387
H       -1.675707      -3.644508      -3.630539
H        2.825129      -3.640395      -3.642461
H       -1.745342      -1.274606      -3.106903
H        2.886143      -1.273272      -3.107821
H       -3.171995      -2.825717      -1.902292
H        0.594469      -6.999978       0.718542
H       -0.573646      -7.317194      -1.386096
H        1.853323      -7.296181      -1.336214
H        4.417262      -2.804299      -2.010804
35

C        2.734639      -0.462524       1.091906
C        1.424020       0.024923       0.961871
O        0.575276      -1.078586      -0.407943
C        0.642813      -0.131920       2.214889
O       -0.254646      -0.929413       2.382535
H        1.666718      -2.479164       1.365723
H        3.241034      -0.421200       2.047332
H        3.391122      -0.439183       0.212568
H        1.167922       0.902620       0.361502
H        0.967588       0.521691       3.047707
H       -0.343085      -1.071825      -0.135984
Sn       0.635138      -3.143845      -0.917127
O        0.672825      -5.171430      -1.001963
O        0.920357      -3.127209       1.199009
O       -1.294202      -2.996868      -1.167616
O        2.703979      -2.894798      -0.954643
O        1.063918      -2.534413      -2.861221
H        3.303726      -3.153709      -0.267560
H        0.523241      -2.879057      -3.563030
Si      -0.094377      -3.540995       2.453638
Si      -1.967470      -2.629837      -2.579304
Si       0.631288      -6.763462      -0.736565
Si       3.055740      -2.625133      -2.634112
H       -0.082093      -4.993213       2.530076
H       -1.441798      -2.989370       2.354880
H        0.763755      -2.876394       3.364387
H       -1.675707      -3.644508      -3.630539
H        2.825129      -3.640395      -3.642461
H       -1.745342      -1.274606      -3.106903
H        2.886143      -1.273272      -3.107821
H       -3.171995      -2.825717      -1.902292
H        0.594469      -6.999978       0.718542
H       -0.573646      -7.317194      -1.386096
H        1.853323      -7.296181      -1.336214
H        4.417262      -2.804299      -2.010804
35

C        2.940372      -0.386300       1.140272
C        1.708631       0.145278       1.190076
O        0.598838      -1.184343      -0.582174
C        0.842518      -0.035430       2.394468
O        0.009478      -0.904769       2.504283
H        1.459746      -2.457156       1.270336
H        3.438832      -0.750766       2.030607
H        3.549560      -0.312281       0.253792
H        1.376809       0.906928       0.497690
H        1.032037       0.689811       3.214572
H       -0.293185      -1.028150      -0.294590
Sn       0.628540      -3.127801      -1.003494
O        0.706847      -5.144429      -0.969841
O        0.795717      -3.134414       1.133430
O       -1.275420      -3.086731      -1.180804
O        2.652842      -2.959389      -0.970453
O        1.059539      -2.609881      -2.914737
H        3.199905      -3.265305      -0.252831
H        0.545955      -2.988369      -3.626784
Si      -0.114328      -3.527426       2.443127
Si      -1.947345      -2.640828      -2.577497
Si       0.629785      -6.725044      -0.722461
Si       3.060910      -2.636679      -2.640157
H       -0.082093      -4.993213       2.530076
H       -1.441798      -2.989370       2.354880
H        0.763755      -2.876394       3.364387
H       -1.675707      -3.644508      -3.630539
H        2.825129      -3.640395      -3.642461
H       -1.745342      -1.274606      -3.106903
H        2.886143      -1.273272      -3.107821
H       -3.171995      -2.825717      -1.902292
H        0.594469      -6.999978       0.718542
H       -0.573646      -7.317194      -1.386096
H        1.853323      -7.296181      -1.336214
H        4.417262      -2.804299      -2.010804
35

C        2.968971      -0.275478       1.026730
C        1.799121       0.297292       1.313231
O        0.580563      -1.143200      -0.637273
C        0.911678       0.058388       2.476312
O        0.180385      -0.888359       2.565301
H        1.326493      -2.413434       1.142785
H        3.407178      -0.879255       1.815837
H        3.610939      -0.145511       0.192815
H        1.410520       1.046553       0.632515
H        0.966804       0.823187       3.280764
H       -0.303603      -0.924311      -0.377588
Sn       0.619457      -3.143161      -1.010830
O        0.731481      -5.178837      -0.962703
O        0.742627      -3.175015       1.082728
O       -1.286526      -3.125858      -1.177577
O        2.625561      -3.006407      -0.974236
O        1.025092      -2.700060      -2.928918
H        3.179210      -3.332118      -0.264150
H        0.532727      -3.137417      -3.622582
Si      -0.106484      -3.535887       2.425458
Si      -1.928342      -2.657433      -2.576332
Si       0.628818      -6.748114      -0.727653
Si       3.034056      -2.663188      -2.623785
H       -0.082093      -4.993213       2.530076
H       -1.441798      -2.989370       2.354880
H        0.763755      -2.876394       3.364387
H       -1.675707      -3.644508      -3.630539
H        2.825129      -3.640395      -3.642461
H       -1.745342      -1.274606      -3.106903
H        2.886143      -1.273272      -3.107821
H       -3.171995      -2.825717      -1.902292
H        0.594469      -6.999978       0.718542
H       -0.573646      -7.317194      -1.386096
H        1.853323      -7.296181      -1.336214
H        4.417262      -2.804299      -2.010804
35

C        2.831577      -0.221595       0.559944
C        1.785080       0.403225       1.127928
O        0.494736      -1.098745      -0.548433
C        0.965631       0.200424       2.343179
O        0.547343      -0.867617       2.706973
H        1.343860      -2.405390       1.117882
H        3.080805      -0.856792       1.412399
H        3.546381      -0.327771      -0.202979
H        1.342419       1.205676       0.531282
H        0.852075       1.105375       2.966181
H       -0.432171      -1.016364      -0.417211
Sn       0.645756      -3.168165      -0.949751
O        0.788915      -5.216641      -0.983157
O        0.809754      -3.212183       1.155004
O       -1.269411      -3.155695      -1.129941
O        2.655099      -2.979517      -1.006484
O        1.027148      -2.785276      -2.899274
H        3.269916      -3.291186      -0.325566
H        0.593843      -3.346708      -3.547814
Si      -0.194645      -3.507325       2.425756
Si      -1.909236      -2.699539      -2.521745
Si       0.640851      -6.761193      -0.727465
Si       3.019171      -2.659731      -2.663260
H       -0.082093      -4.993213       2.530076
H       -1.441798      -2.989370       2.354880
H        0.763755      -2.876394       3.364387
H       -1.675707      -3.644508      -3.630539
H        2.825129      -3.640395      -3.642461
H       -1.745342      -1.274606      -3.106903
H        2.886143      -1.273272      -3.107821
H       -3.171995      -2.825717      -1.902292
H        0.594469      -6.999978       0.718542
H       -0.573646      -7.317194      -1.386096
H        1.853323      -7.296181      -1.336214
H        4.417262      -2.804299      -2.010804
35

C        3.035729      -0.131039       0.701963
C        1.962874       0.478643       1.256126
O        0.586103      -1.031241      -0.393428
C        1.093014       0.187156       2.383996
O        0.977688      -0.938193       2.805782
H        1.555576      -2.349995       1.075015
H        3.088848      -0.782541       1.612891
H        3.841556      -0.265772      -0.003642
H        1.599731       1.327644       0.645197
H        0.735529       1.085176       2.946429
H       -0.372952      -1.034085      -0.373442
Sn       0.753486      -3.093957      -0.899684
O        0.832125      -5.158357      -0.973284
O        1.010455      -3.133030       1.169317
O       -1.157619      -3.054958      -1.092992
O        2.771711      -2.921403      -1.000097
O        1.121245      -2.723451      -2.875779
H        3.381329      -3.235573      -0.315324
H        0.656897      -3.310263      -3.495709
Si      -0.152064      -3.315095       2.350176
Si      -1.879369      -2.636716      -2.537363
Si       0.695765      -6.692652      -0.673735
Si       3.094848      -2.658109      -2.669855
H       -0.082093      -4.993213       2.530076
H       -1.441798      -2.989370       2.354880
H        0.763755      -2.876394       3.364387
H       -1.675707      -3.644508      -3.630539
H        2.825129      -3.640395      -3.642461
H       -1.745342      -1.274606      -3.106903
H        2.886143      -1.273272      -3.107821
H       -3.171995      -2.825717      -1.902292
H        0.594469      -6.999978       0.718542
H       -0.573646      -7.317194      -1.386096
H        1.853323      -7.296181      -1.336214
H        4.417262      -2.804299      -2.010804
35

C        2.979298      -0.007371       0.769805
C        1.846568       0.521408       1.230293
O        0.507577      -1.004998      -0.429900
C        0.855389       0.136723       2.255341
O        0.782134      -0.982252       2.675606
H        1.480606      -2.371113       1.039895
H        2.978668      -0.713306       1.646301
H        3.848928      -0.079101       0.139855
H        1.499535       1.370807       0.612351
H        0.356089       0.993270       2.738986
H       -0.432957      -1.018749      -0.429452
Sn       0.694874      -3.119195      -0.948810
O        0.813703      -5.143533      -1.025934
O        0.945402      -3.166242       1.098519
O       -1.183960      -3.060688      -1.153635
O        2.750664      -2.956418      -1.024646
O        1.068886      -2.745740      -2.896951
H        3.380030      -3.261843      -0.365694
H        0.616386      -3.349285      -3.505399
Si      -0.170995      -3.337934       2.311382
Si      -1.895288      -2.614492      -2.552377
Si       0.662869      -6.692717      -0.706036
Si       3.077061      -2.673803      -2.698671
H       -0.082093      -4.993213       2.530076
H       -1.441798      -2.989370       2.354880
H        0.763755      -2.876394       3.364387
H       -1.675707      -3.644508      -3.630539
H        2.825129      -3.640395      -3.642461
H       -1.745342      -1.274606      -3.106903
H        2.886143      -1.273272      -3.107821
H       -3.171995      -2.825717      -1.902292
H        0.594469      -6.999978       0.718542
H       -0.573646      -7.317194      -1.386096
H        1.853323      -7.296181      -1.336214
H        4.417262      -2.804299      -2.010804
35

C        2.838834      -0.463021       1.743781
C        1.787719       0.107408       1.125140
O        0.557262      -1.121555      -0.476970
C        0.391468      -0.385446       1.178005
O        0.033181      -1.274183       1.980409
H        1.533040      -2.638566       1.271699
H        2.713131      -1.260017       2.456345
H        3.859031      -0.121862       1.585293
H        1.948561       0.921198       0.415356
H       -0.350777       0.354125       0.828059
H       -0.335542      -0.998668      -0.793221
Sn       0.617691      -3.203801      -0.875122
O        0.674857      -5.194640      -1.007134
O        1.026054      -3.441067       1.126075
O       -1.274406      -3.080522      -1.190081
O        2.659850      -3.052523      -0.962766
O        1.018626      -2.668103      -2.816625
H        3.224095      -3.423684      -0.282000
H        0.609812      -3.253712      -3.453323
Si      -0.094497      -3.493626       2.416329
Si      -1.950593      -2.644206      -2.587361
Si       0.622541      -6.777565      -0.737588
Si       3.039591      -2.650514      -2.601058
H       -0.082093      -4.993213       2.530076
H       -1.441798      -2.989370       2.354880
H        0.763755      -2.876394       3.364387
H       -1.675707      -3.644508      -3.630539
H        2.825129      -3.640395      -3.642461
H       -1.745342      -1.274606      -3.106903
H        2.886143      -1.273272      -3.107821
H       -3.171995      -2.825717      -1.902292
H        0.594469      -6.999978       0.718542
H       -0.573646      -7.317194      -1.386096
H        1.853323      -7.296181      -1.336214
H        4.417262      -2.804299      -2.010804
35

C        2.836842      -0.452086       1.756144
C        1.804129       0.107352       1.143664
O        0.555107      -1.162679      -0.495993
C        0.396449      -0.376946       1.204378
O        0.026259      -1.258317       2.000768
H        1.522468      -2.631550       1.281649
H        2.705327      -1.253234       2.472898
H        3.852404      -0.119582       1.601235
H        1.961696       0.910612       0.431814
H       -0.337263       0.357136       0.827350
H       -0.339572      -1.036433      -0.807901
Sn       0.614241      -3.197943      -0.880599
O        0.676221      -5.187073      -1.004001
O        1.016690      -3.430156       1.134730
O       -1.268590      -3.080296      -1.199484
O        2.648966      -3.045554      -0.957841
O        1.022960      -2.672324      -2.819784
H        3.212486      -3.408003      -0.282997
H        0.615421      -3.258344      -3.454214
Si      -0.095980      -3.487713       2.420549
Si      -1.948966      -2.646653      -2.593799
Si       0.627976      -6.774522      -0.737284
Si       3.027827      -2.648306      -2.603147
H       -0.082093      -4.993213       2.530076
H       -1.441798      -2.989370       2.354880
H        0.763755      -2.876394       3.364387
H       -1.675707      -3.644508      -3.630539
H        2.825129      -3.640395      -3.642461
H       -1.745342      -1.274606      -3.106903
H        2.886143      -1.273272      -3.107821
H       -3.171995      -2.825717      -1.902292
H        0.594469      -6.999978       0.718542
H       -0.573646      -7.317194      -1.386096
H        1.853323      -7.296181      -1.336214
H        4.417262      -2.804299      -2.010804
[GEOCONV]
energy
0.0
33.283591853243706
66.90463128192641
77.8729939543773
53.816496810854005
50.765017179743154
78.41263086902472
108.80225434446038
106.98462301419204
35.05095564596559
34.64733289189462
max-force
0.0
0.009453757951925146
0.01384075785355165
0.009189312701317854
0.005643035051469256
0.009411986045764525
0.025640976949061655
0.03747131890544232
0.041756293460902365
0.0062967077532373765
0.0020829068019000054
max-step
1000.0
1000.0
1000.0
1000.0
1000.0
1000.0
1000.0
1000.0
1000.0
1000.0
1000.0
