[Molden Format]
[Geometries] (XYZ)
35

C        2.171975      -0.115727       0.908331
C        0.776561       0.267913       0.431064
O        0.309334      -0.604106      -0.561027
C       -0.204452       0.289100       1.578794
O       -1.282078      -0.233491       1.512497
H        2.133566      -1.110169       1.341397
H        2.526832       0.595658       1.648125
H        2.845976      -0.125994       0.057404
H        0.807346       1.293510       0.017577
H        0.135818       0.831600       2.477625
H       -0.632511      -0.753598      -0.369290
Sn       0.567360      -3.332966      -0.800497
O        0.750469      -5.192874      -1.129062
O        0.763286      -3.119235       1.082353
O       -1.230851      -2.944397      -1.147984
O        2.580572      -2.826661      -0.943997
O        1.026874      -2.612787      -2.695027
H        3.262085      -3.012539      -0.294883
H        0.636776      -3.037736      -3.461179
Si      -0.095298      -3.540242       2.387065
Si      -1.938836      -2.636291      -2.580763
Si       0.628507      -6.761477      -0.737922
Si       3.039240      -2.632330      -2.598778
H       -0.082093      -4.993213       2.530076
H       -1.441798      -2.989370       2.354880
H        0.763755      -2.876394       3.364387
H       -1.675707      -3.644508      -3.630539
H        2.825129      -3.640395      -3.642461
H       -1.745342      -1.274606      -3.106903
H        2.886143      -1.273272      -3.107821
H       -3.171995      -2.825717      -1.902292
H        0.594469      -6.999978       0.718542
H       -0.573646      -7.317194      -1.386096
H        1.853323      -7.296181      -1.336214
H        4.417262      -2.804299      -2.010804
35

C        2.206793      -0.291277       1.057074
C        0.861461       0.187387       0.548905
O        0.371280      -0.751331      -0.563023
C       -0.183784       0.189632       1.631719
O       -1.271030      -0.304748       1.515003
H        2.046947      -1.428160       1.450805
H        2.593632       0.317984       1.868261
H        2.914672      -0.319250       0.236901
H        0.913234       1.201814       0.124739
H        0.124543       0.706859       2.556325
H       -0.578959      -0.824863      -0.379129
Sn       0.569360      -3.303455      -0.810119
O        0.738915      -5.182846      -1.129075
O        0.786869      -3.116029       1.099929
O       -1.243014      -2.947524      -1.148522
O        2.585144      -2.826839      -0.943237
O        1.026015      -2.594904      -2.709437
H        3.269532      -3.026271      -0.301895
H        0.634469      -3.015424      -3.475683
Si      -0.097752      -3.563605       2.381788
Si      -1.945591      -2.650505      -2.583760
Si       0.620394      -6.755716      -0.749229
Si       3.042850      -2.640645      -2.595939
H       -0.082093      -4.993213       2.530076
H       -1.441798      -2.989370       2.354880
H        0.763755      -2.876394       3.364387
H       -1.675707      -3.644508      -3.630539
H        2.825129      -3.640395      -3.642461
H       -1.745342      -1.274606      -3.106903
H        2.886143      -1.273272      -3.107821
H       -3.171995      -2.825717      -1.902292
H        0.594469      -6.999978       0.718542
H       -0.573646      -7.317194      -1.386096
H        1.853323      -7.296181      -1.336214
H        4.417262      -2.804299      -2.010804
35

C        2.235113      -0.536192       1.233024
C        0.990932       0.054659       0.707722
O        0.466328      -0.983451      -0.585417
C       -0.125191       0.050614       1.703674
O       -1.221170      -0.406452       1.523169
H        1.836373      -1.868323       1.506971
H        2.637276      -0.099163       2.139506
H        2.984381      -0.593315       0.457253
H        1.067775       1.045955       0.257932
H        0.140352       0.540749       2.654981
H       -0.483013      -0.940684      -0.409952
Sn       0.579272      -3.245727      -0.830340
O        0.735805      -5.159419      -1.116193
O        0.828373      -3.092626       1.140752
O       -1.252436      -2.929937      -1.153446
O        2.596147      -2.817958      -0.950536
O        1.024256      -2.565387      -2.738217
H        3.282998      -3.036707      -0.319310
H        0.630397      -2.982898      -3.502510
Si      -0.092245      -3.562301       2.395039
Si      -1.947539      -2.645426      -2.590146
Si       0.619797      -6.735936      -0.746295
Si       3.050684      -2.642002      -2.600068
H       -0.082093      -4.993213       2.530076
H       -1.441798      -2.989370       2.354880
H        0.763755      -2.876394       3.364387
H       -1.675707      -3.644508      -3.630539
H        2.825129      -3.640395      -3.642461
H       -1.745342      -1.274606      -3.106903
H        2.886143      -1.273272      -3.107821
H       -3.171995      -2.825717      -1.902292
H        0.594469      -6.999978       0.718542
H       -0.573646      -7.317194      -1.386096
H        1.853323      -7.296181      -1.336214
H        4.417262      -2.804299      -2.010804
35

C        2.316350      -0.991841       1.373626
C        1.265975      -0.123674       0.784989
O        0.678201      -0.963184      -0.450362
C        0.086993       0.037043       1.695051
O       -1.030545      -0.330256       1.392462
H        1.682089      -2.010409       1.331922
H        2.455760      -0.967279       2.460772
H        3.221740      -1.081232       0.800988
H        1.453978       0.731516       0.159218
H        0.319396       0.455434       2.660884
H       -0.233206      -0.642148      -0.272432
Sn       0.558607      -3.239573      -0.867774
O        0.785090      -5.159782      -1.028291
O        0.856204      -3.118887       1.135156
O       -1.289958      -3.002011      -1.155973
O        2.587383      -2.909872      -0.994318
O        0.973738      -2.626947      -2.769798
H        3.274934      -3.139291      -0.371848
H        0.637252      -3.066153      -3.557071
Si      -0.090149      -3.555111       2.379027
Si      -1.956303      -2.634220      -2.594428
Si       0.622106      -6.739552      -0.741529
Si       3.073570      -2.637618      -2.615954
H       -0.082093      -4.993213       2.530076
H       -1.441798      -2.989370       2.354880
H        0.763755      -2.876394       3.364387
H       -1.675707      -3.644508      -3.630539
H        2.825129      -3.640395      -3.642461
H       -1.745342      -1.274606      -3.106903
H        2.886143      -1.273272      -3.107821
H       -3.171995      -2.825717      -1.902292
H        0.594469      -6.999978       0.718542
H       -0.573646      -7.317194      -1.386096
H        1.853323      -7.296181      -1.336214
H        4.417262      -2.804299      -2.010804
35

C        2.364081      -0.910667       1.579466
C        1.336387      -0.123264       1.119376
O        0.629796      -1.165430      -0.568001
C        0.130293      -0.053523       2.006174
O       -0.968707      -0.410070       1.706923
H        1.494942      -2.276126       1.428906
H        2.576496      -1.056308       2.621475
H        3.223769      -0.991563       0.934218
H        1.455526       0.750930       0.517103
H        0.336240       0.389704       3.010582
H       -0.276650      -0.855738      -0.371669
Sn       0.575529      -3.183675      -0.928703
O        0.752272      -5.143161      -1.069286
O        0.848778      -3.093333       1.218215
O       -1.279694      -3.000148      -1.185402
O        2.609084      -2.868649      -1.001594
O        1.011224      -2.571440      -2.843705
H        3.312865      -3.122012      -0.388855
H        0.650798      -3.001098      -3.614713
Si      -0.112436      -3.562818       2.455380
Si      -1.959004      -2.641848      -2.611509
Si       0.624595      -6.715652      -0.739142
Si       3.074182      -2.634290      -2.641472
H       -0.082093      -4.993213       2.530076
H       -1.441798      -2.989370       2.354880
H        0.763755      -2.876394       3.364387
H       -1.675707      -3.644508      -3.630539
H        2.825129      -3.640395      -3.642461
H       -1.745342      -1.274606      -3.106903
H        2.886143      -1.273272      -3.107821
H       -3.171995      -2.825717      -1.902292
H        0.594469      -6.999978       0.718542
H       -0.573646      -7.317194      -1.386096
H        1.853323      -7.296181      -1.336214
H        4.417262      -2.804299      -2.010804
35

C        2.489896      -0.754226       1.556116
C        1.424140      -0.004421       1.211358
O        0.644478      -1.202201      -0.577965
C        0.264364      -0.005524       2.154440
O       -0.824378      -0.428015       1.904073
H        1.480773      -2.348566       1.426127
H        2.799534      -0.969310       2.558111
H        3.287097      -0.829656       0.833122
H        1.443256       0.884113       0.613406
H        0.466474       0.481107       3.138932
H       -0.236909      -0.916310      -0.330369
Sn       0.574194      -3.169093      -0.959912
O        0.752918      -5.128944      -1.074821
O        0.853108      -3.091791       1.234535
O       -1.282838      -2.997337      -1.189162
O        2.619227      -2.874760      -1.013331
O        0.998688      -2.571459      -2.870781
H        3.315524      -3.138772      -0.404167
H        0.641353      -2.994622      -3.650349
Si      -0.115606      -3.553403       2.471285
Si      -1.963546      -2.642382      -2.606309
Si       0.625237      -6.698222      -0.738117
Si       3.071456      -2.634765      -2.645715
H       -0.082093      -4.993213       2.530076
H       -1.441798      -2.989370       2.354880
H        0.763755      -2.876394       3.364387
H       -1.675707      -3.644508      -3.630539
H        2.825129      -3.640395      -3.642461
H       -1.745342      -1.274606      -3.106903
H        2.886143      -1.273272      -3.107821
H       -3.171995      -2.825717      -1.902292
H        0.594469      -6.999978       0.718542
H       -0.573646      -7.317194      -1.386096
H        1.853323      -7.296181      -1.336214
H        4.417262      -2.804299      -2.010804
35

C        2.695293      -0.606950       1.609081
C        1.607004       0.118624       1.389778
O        0.670889      -1.274800      -0.590475
C        0.468636       0.127725       2.341487
O       -0.605158      -0.358615       2.130427
H        1.448026      -2.382276       1.361018
H        2.913903      -1.053360       2.560182
H        3.460786      -0.697300       0.838690
H        1.569894       0.917420       0.657053
H        0.665075       0.662443       3.288159
H       -0.171354      -0.923502      -0.315670
Sn       0.554382      -3.183199      -1.023985
O        0.758566      -5.123922      -1.054877
O        0.832799      -3.134231       1.192366
O       -1.293468      -3.053484      -1.203032
O        2.597376      -2.950356      -1.057643
O        0.978362      -2.605252      -2.925107
H        3.268175      -3.256939      -0.444067
H        0.594083      -3.018216      -3.708860
Si      -0.126946      -3.562990       2.461793
Si      -1.968808      -2.626457      -2.606105
Si       0.630046      -6.711541      -0.750398
Si       3.083368      -2.629970      -2.649331
H       -0.082093      -4.993213       2.530076
H       -1.441798      -2.989370       2.354880
H        0.763755      -2.876394       3.364387
H       -1.675707      -3.644508      -3.630539
H        2.825129      -3.640395      -3.642461
H       -1.745342      -1.274606      -3.106903
H        2.886143      -1.273272      -3.107821
H       -3.171995      -2.825717      -1.902292
H        0.594469      -6.999978       0.718542
H       -0.573646      -7.317194      -1.386096
H        1.853323      -7.296181      -1.336214
H        4.417262      -2.804299      -2.010804
35

C        2.658539      -0.163878       1.563100
C        1.514415       0.460723       1.309950
O        0.682328      -1.264480      -0.562536
C        0.373816       0.426356       2.270141
O       -0.633549      -0.189330       2.118496
H        1.445126      -2.412853       1.395222
H        2.884270      -0.567999       2.529813
H        3.456841      -0.196420       0.825578
H        1.408996       1.209434       0.538540
H        0.530886       1.037326       3.178778
H       -0.157928      -0.905698      -0.292704
Sn       0.554117      -3.155597      -1.060121
O        0.749532      -5.114314      -1.071309
O        0.843214      -3.137834       1.185348
O       -1.300974      -3.064009      -1.192726
O        2.599250      -2.966746      -1.072476
O        0.958701      -2.584677      -2.944081
H        3.239965      -3.303673      -0.451686
H        0.552882      -2.999019      -3.712487
Si      -0.123241      -3.560630       2.458724
Si      -1.962748      -2.641404      -2.598916
Si       0.630695      -6.698556      -0.752026
Si       3.094569      -2.633597      -2.653609
H       -0.082093      -4.993213       2.530076
H       -1.441798      -2.989370       2.354880
H        0.763755      -2.876394       3.364387
H       -1.675707      -3.644508      -3.630539
H        2.825129      -3.640395      -3.642461
H       -1.745342      -1.274606      -3.106903
H        2.886143      -1.273272      -3.107821
H       -3.171995      -2.825717      -1.902292
H        0.594469      -6.999978       0.718542
H       -0.573646      -7.317194      -1.386096
H        1.853323      -7.296181      -1.336214
H        4.417262      -2.804299      -2.010804
35

C        2.605397       0.119646       1.393359
C        1.451425       0.707096       1.181544
O        0.679681      -1.272929      -0.565015
C        0.367181       0.649641       2.201489
O       -0.595864      -0.055858       2.114257
H        1.421759      -2.471128       1.362074
H        2.924874      -0.238862       2.362891
H        3.352100       0.127243       0.620318
H        1.304049       1.440200       0.404929
H        0.520117       1.296554       3.094899
H       -0.149784      -0.899159      -0.260994
Sn       0.529610      -3.154322      -1.094313
O        0.730999      -5.147192      -1.096605
O        0.822037      -3.160593       1.174060
O       -1.320912      -3.086892      -1.211130
O        2.584012      -3.018172      -1.073353
O        0.928643      -2.627090      -2.960541
H        3.229159      -3.377836      -0.465140
H        0.569922      -3.085464      -3.712986
Si      -0.119439      -3.571666       2.445621
Si      -1.961677      -2.661123      -2.631139
Si       0.630435      -6.725711      -0.764645
Si       3.086220      -2.653465      -2.659687
H       -0.082093      -4.993213       2.530076
H       -1.441798      -2.989370       2.354880
H        0.763755      -2.876394       3.364387
H       -1.675707      -3.644508      -3.630539
H        2.825129      -3.640395      -3.642461
H       -1.745342      -1.274606      -3.106903
H        2.886143      -1.273272      -3.107821
H       -3.171995      -2.825717      -1.902292
H        0.594469      -6.999978       0.718542
H       -0.573646      -7.317194      -1.386096
H        1.853323      -7.296181      -1.336214
H        4.417262      -2.804299      -2.010804
35

C        2.628814       0.509089       1.135925
C        1.416136       0.998550       0.843458
O        0.756971      -1.314135      -0.604579
C        0.288030       0.966503       1.806175
O       -0.617096       0.176956       1.769784
H        1.552301      -2.466414       1.363251
H        2.937775       0.202961       2.123412
H        3.400573       0.500315       0.380393
H        1.214565       1.602294      -0.026339
H        0.321668       1.759489       2.581591
H       -0.028738      -0.875476      -0.270811
Sn       0.561653      -3.131977      -1.100963
O        0.774908      -5.104584      -1.052977
O        0.880272      -3.177194       1.169242
O       -1.300708      -3.104282      -1.165071
O        2.614205      -3.052581      -1.086838
O        0.922430      -2.604411      -2.993928
H        3.257176      -3.456341      -0.498201
H        0.522759      -3.050847      -3.746802
Si      -0.118335      -3.540410       2.425154
Si      -1.966874      -2.650815      -2.571827
Si       0.625592      -6.678781      -0.736669
Si       3.106560      -2.619181      -2.659827
H       -0.082093      -4.993213       2.530076
H       -1.441798      -2.989370       2.354880
H        0.763755      -2.876394       3.364387
H       -1.675707      -3.644508      -3.630539
H        2.825129      -3.640395      -3.642461
H       -1.745342      -1.274606      -3.106903
H        2.886143      -1.273272      -3.107821
H       -3.171995      -2.825717      -1.902292
H        0.594469      -6.999978       0.718542
H       -0.573646      -7.317194      -1.386096
H        1.853323      -7.296181      -1.336214
H        4.417262      -2.804299      -2.010804
35

C        2.578344       0.726494       0.897384
C        1.348551       1.125129       0.644839
O        0.765757      -1.350907      -0.618120
C        0.218579       1.023373       1.593353
O       -0.594167       0.138752       1.603775
H        1.591881      -2.613434       1.330156
H        2.852659       0.303257       1.855847
H        3.353800       0.774677       0.156498
H        1.076128       1.566662      -0.297773
H        0.147369       1.859320       2.312493
H        0.010780      -0.884052      -0.249265
Sn       0.525089      -3.165668      -1.169869
O        0.766174      -5.131583      -1.068918
O        0.911896      -3.274914       1.167576
O       -1.321525      -3.167862      -1.196659
O        2.587017      -3.159826      -1.141826
O        0.864706      -2.656278      -3.033582
H        3.198532      -3.622526      -0.561297
H        0.454925      -3.115594      -3.772480
Si      -0.106647      -3.553566       2.423064
Si      -1.968905      -2.657753      -2.595572
Si       0.623852      -6.700956      -0.751343
Si       3.117976      -2.636083      -2.662964
H       -0.082093      -4.993213       2.530076
H       -1.441798      -2.989370       2.354880
H        0.763755      -2.876394       3.364387
H       -1.675707      -3.644508      -3.630539
H        2.825129      -3.640395      -3.642461
H       -1.745342      -1.274606      -3.106903
H        2.886143      -1.273272      -3.107821
H       -3.171995      -2.825717      -1.902292
H        0.594469      -6.999978       0.718542
H       -0.573646      -7.317194      -1.386096
H        1.853323      -7.296181      -1.336214
H        4.417262      -2.804299      -2.010804
[GEOCONV]
energy
0.0
10.798821139142092
52.0532277418024
44.504915570541925
77.18201800734823
75.3073352789288
60.194521063102
58.64229831292323
59.98933492184733
57.96911181638279
52.917510895917076
max-force
0.0
0.009478029848552448
0.009105486458335754
0.00773138010870151
0.005210401906337358
0.00525056909144604
0.005261631309741895
0.004638519112075615
0.011169992766699935
0.006860810486551522
0.007994599871659853
max-step
1000.0
1000.0
1000.0
1000.0
1000.0
1000.0
1000.0
1000.0
1000.0
1000.0
1000.0
