[Molden Format]
[Geometries] (XYZ)
35

C        2.171975      -0.115727       0.908331
C        0.776561       0.267913       0.431064
O        0.309334      -0.604106      -0.561027
C       -0.204452       0.289100       1.578794
O       -1.282078      -0.233491       1.512497
H        2.133566      -1.110169       1.341397
H        2.526832       0.595658       1.648125
H        2.845976      -0.125994       0.057404
H        0.807346       1.293510       0.017577
H        0.135818       0.831600       2.477625
H       -0.632511      -0.753598      -0.369290
Sn       0.567360      -3.332966      -0.800497
O        0.750469      -5.192874      -1.129062
O        0.763286      -3.119235       1.082353
O       -1.230851      -2.944397      -1.147984
O        2.580572      -2.826661      -0.943997
O        1.026874      -2.612787      -2.695027
H        3.262085      -3.012539      -0.294883
H        0.636776      -3.037736      -3.461179
Si      -0.095298      -3.540242       2.387065
Si      -1.938836      -2.636291      -2.580763
Si       0.628507      -6.761477      -0.737922
Si       3.039240      -2.632330      -2.598778
H       -0.082093      -4.993213       2.530076
H       -1.441798      -2.989370       2.354880
H        0.763755      -2.876394       3.364387
H       -1.675707      -3.644508      -3.630539
H        2.825129      -3.640395      -3.642461
H       -1.745342      -1.274606      -3.106903
H        2.886143      -1.273272      -3.107821
H       -3.171995      -2.825717      -1.902292
H        0.594469      -6.999978       0.718542
H       -0.573646      -7.317194      -1.386096
H        1.853323      -7.296181      -1.336214
H        4.417262      -2.804299      -2.010804
35

C        2.214138      -0.330614       1.067052
C        0.880863       0.174974       0.555535
O        0.388771      -0.742491      -0.550523
C       -0.169315       0.187231       1.634248
O       -1.261048      -0.299659       1.509042
H        2.028488      -1.443513       1.433372
H        2.601478       0.244345       1.906475
H        2.934037      -0.356362       0.258015
H        0.940078       1.180532       0.116908
H        0.138382       0.696846       2.559919
H       -0.565700      -0.792964      -0.366430
Sn       0.567531      -3.300687      -0.815473
O        0.741982      -5.181571      -1.123698
O        0.789680      -3.113236       1.101861
O       -1.246378      -2.952518      -1.151228
O        2.585434      -2.832664      -0.948118
O        1.020451      -2.599827      -2.713149
H        3.269594      -3.034087      -0.307329
H        0.631919      -3.022498      -3.480808
Si      -0.095199      -3.556548       2.384891
Si      -1.947043      -2.651918      -2.587489
Si       0.620482      -6.753911      -0.749923
Si       3.046591      -2.640261      -2.598531
H       -0.082093      -4.993213       2.530076
H       -1.441798      -2.989370       2.354880
H        0.763755      -2.876394       3.364387
H       -1.675707      -3.644508      -3.630539
H        2.825129      -3.640395      -3.642461
H       -1.745342      -1.274606      -3.106903
H        2.886143      -1.273272      -3.107821
H       -3.171995      -2.825717      -1.902292
H        0.594469      -6.999978       0.718542
H       -0.573646      -7.317194      -1.386096
H        1.853323      -7.296181      -1.336214
H        4.417262      -2.804299      -2.010804
35

C        2.251410      -0.639366       1.254347
C        1.040413       0.019829       0.717250
O        0.503318      -0.949653      -0.550876
C       -0.088543       0.051537       1.701924
O       -1.195372      -0.380445       1.496942
H        1.800542      -1.874956       1.457790
H        2.621055      -0.290673       2.219046
H        3.034909      -0.692940       0.514354
H        1.146645       0.985610       0.231899
H        0.176697       0.518792       2.655759
H       -0.449859      -0.850568      -0.374756
Sn       0.571742      -3.245601      -0.840736
O        0.744628      -5.159273      -1.101493
O        0.833654      -3.089032       1.140586
O       -1.262591      -2.949794      -1.157624
O        2.594115      -2.835601      -0.962251
O        1.009106      -2.581364      -2.743340
H        3.280499      -3.055406      -0.331354
H        0.627054      -3.005739      -3.512936
Si      -0.087198      -3.547664       2.397568
Si      -1.952134      -2.650341      -2.597121
Si       0.619152      -6.734600      -0.749268
Si       3.060261      -2.639477      -2.604786
H       -0.082093      -4.993213       2.530076
H       -1.441798      -2.989370       2.354880
H        0.763755      -2.876394       3.364387
H       -1.675707      -3.644508      -3.630539
H        2.825129      -3.640395      -3.642461
H       -1.745342      -1.274606      -3.106903
H        2.886143      -1.273272      -3.107821
H       -3.171995      -2.825717      -1.902292
H        0.594469      -6.999978       0.718542
H       -0.573646      -7.317194      -1.386096
H        1.853323      -7.296181      -1.336214
H        4.417262      -2.804299      -2.010804
35

C        2.288160      -0.960270       1.431236
C        1.197890      -0.166432       0.901569
O        0.620619      -1.032887      -0.508821
C        0.005530      -0.048389       1.785316
O       -1.103444      -0.348861       1.444574
H        1.671053      -2.039995       1.393266
H        2.482804      -0.973245       2.487864
H        3.151691      -1.014215       0.799716
H        1.356257       0.709216       0.260228
H        0.213392       0.406433       2.777276
H       -0.307587      -0.783197      -0.369331
Sn       0.577662      -3.219461      -0.873209
O        0.758187      -5.152083      -1.057621
O        0.845611      -3.123937       1.157371
O       -1.264427      -3.016343      -1.174212
O        2.599181      -2.858528      -0.977030
O        1.010791      -2.608622      -2.780056
H        3.290649      -3.112096      -0.356671
H        0.624389      -3.055300      -3.524069
Si      -0.086197      -3.559200       2.388450
Si      -1.956408      -2.647903      -2.595504
Si       0.621771      -6.721092      -0.735742
Si       3.068197      -2.642810      -2.622990
H       -0.082093      -4.993213       2.530076
H       -1.441798      -2.989370       2.354880
H        0.763755      -2.876394       3.364387
H       -1.675707      -3.644508      -3.630539
H        2.825129      -3.640395      -3.642461
H       -1.745342      -1.274606      -3.106903
H        2.886143      -1.273272      -3.107821
H       -3.171995      -2.825717      -1.902292
H        0.594469      -6.999978       0.718542
H       -0.573646      -7.317194      -1.386096
H        1.853323      -7.296181      -1.336214
H        4.417262      -2.804299      -2.010804
35

C        2.370585      -0.964506       1.613115
C        1.358979      -0.171001       1.151257
O        0.626790      -1.175308      -0.563647
C        0.139181      -0.075855       2.007405
O       -0.961715      -0.412570       1.695565
H        1.493899      -2.291708       1.419765
H        2.508803      -1.193553       2.648834
H        3.256288      -1.046972       0.995689
H        1.494653       0.667424       0.497646
H        0.330116       0.369921       3.007600
H       -0.266087      -0.861133      -0.373129
Sn       0.559015      -3.201487      -0.940039
O        0.746981      -5.143798      -1.066615
O        0.857302      -3.108271       1.207985
O       -1.287935      -3.027489      -1.192986
O        2.597694      -2.883891      -1.019407
O        1.001747      -2.596565      -2.852319
H        3.283096      -3.148173      -0.399232
H        0.647429      -3.027213      -3.630117
Si      -0.110703      -3.562998       2.448339
Si      -1.958598      -2.637923      -2.610439
Si       0.628127      -6.722463      -0.743171
Si       3.070317      -2.633382      -2.640617
H       -0.082093      -4.993213       2.530076
H       -1.441798      -2.989370       2.354880
H        0.763755      -2.876394       3.364387
H       -1.675707      -3.644508      -3.630539
H        2.825129      -3.640395      -3.642461
H       -1.745342      -1.274606      -3.106903
H        2.886143      -1.273272      -3.107821
H       -3.171995      -2.825717      -1.902292
H        0.594469      -6.999978       0.718542
H       -0.573646      -7.317194      -1.386096
H        1.853323      -7.296181      -1.336214
H        4.417262      -2.804299      -2.010804
35

C        2.447897      -0.958261       1.729802
C        1.473284      -0.150806       1.304809
O        0.618854      -1.218000      -0.576321
C        0.220989       0.008956       2.092142
O       -0.881507      -0.233414       1.687029
H        1.465846      -2.321445       1.416230
H        2.475062      -1.358681       2.734961
H        3.344840      -1.043501       1.143855
H        1.627050       0.620540       0.568762
H        0.381494       0.410190       3.123869
H       -0.258840      -0.873499      -0.379372
Sn       0.544861      -3.188299      -0.990583
O        0.750121      -5.137462      -1.059193
O        0.876381      -3.115394       1.215936
O       -1.307554      -3.071137      -1.198999
O        2.586647      -2.910078      -1.039115
O        0.971235      -2.606778      -2.891922
H        3.262998      -3.174093      -0.412870
H        0.618356      -3.062432      -3.652858
Si      -0.113077      -3.553404       2.441371
Si      -1.966157      -2.645655      -2.617626
Si       0.623200      -6.717112      -0.746561
Si       3.077574      -2.624136      -2.644864
H       -0.082093      -4.993213       2.530076
H       -1.441798      -2.989370       2.354880
H        0.763755      -2.876394       3.364387
H       -1.675707      -3.644508      -3.630539
H        2.825129      -3.640395      -3.642461
H       -1.745342      -1.274606      -3.106903
H        2.886143      -1.273272      -3.107821
H       -3.171995      -2.825717      -1.902292
H        0.594469      -6.999978       0.718542
H       -0.573646      -7.317194      -1.386096
H        1.853323      -7.296181      -1.336214
H        4.417262      -2.804299      -2.010804
35

C        2.665494      -0.839424       1.672622
C        1.632210      -0.043632       1.426289
O        0.682468      -1.260574      -0.586702
C        0.454444       0.029756       2.323262
O       -0.644777      -0.378198       2.045992
H        1.481292      -2.410703       1.382525
H        2.786817      -1.342483       2.625267
H        3.475850      -0.917820       0.976325
H        1.651313       0.721874       0.668502
H        0.641047       0.541298       3.298684
H       -0.182980      -0.912147      -0.353069
Sn       0.559821      -3.192418      -1.025436
O        0.758427      -5.138852      -1.043610
O        0.871730      -3.151950       1.206130
O       -1.296985      -3.099805      -1.200246
O        2.602388      -2.947144      -1.058621
O        0.958205      -2.654402      -2.919129
H        3.270215      -3.231160      -0.432396
H        0.590327      -3.104504      -3.680900
Si      -0.115712      -3.554827       2.443724
Si      -1.957446      -2.647540      -2.604736
Si       0.627107      -6.715631      -0.744969
Si       3.088325      -2.635345      -2.653794
H       -0.082093      -4.993213       2.530076
H       -1.441798      -2.989370       2.354880
H        0.763755      -2.876394       3.364387
H       -1.675707      -3.644508      -3.630539
H        2.825129      -3.640395      -3.642461
H       -1.745342      -1.274606      -3.106903
H        2.886143      -1.273272      -3.107821
H       -3.171995      -2.825717      -1.902292
H        0.594469      -6.999978       0.718542
H       -0.573646      -7.317194      -1.386096
H        1.853323      -7.296181      -1.336214
H        4.417262      -2.804299      -2.010804
35

C        2.739524      -0.344551       1.544179
C        1.609206       0.330156       1.364190
O        0.690334      -1.276020      -0.584257
C        0.477111       0.289211       2.335368
O       -0.538688      -0.308649       2.141712
H        1.463618      -2.421728       1.350937
H        2.933601      -0.874889       2.455753
H        3.515479      -0.373902       0.797432
H        1.500442       1.054426       0.576947
H        0.641045       0.852186       3.259658
H       -0.144207      -0.908234      -0.308430
Sn       0.539252      -3.177840      -1.075429
O        0.757596      -5.132965      -1.065326
O        0.846375      -3.158642       1.173066
O       -1.313168      -3.089971      -1.209527
O        2.588922      -3.003419      -1.083733
O        0.947604      -2.623251      -2.958689
H        3.239909      -3.341872      -0.467309
H        0.574867      -3.068069      -3.724862
Si      -0.119788      -3.556659       2.447799
Si      -1.974355      -2.641412      -2.614705
Si       0.628937      -6.711152      -0.746286
Si       3.094178      -2.634520      -2.652594
H       -0.082093      -4.993213       2.530076
H       -1.441798      -2.989370       2.354880
H        0.763755      -2.876394       3.364387
H       -1.675707      -3.644508      -3.630539
H        2.825129      -3.640395      -3.642461
H       -1.745342      -1.274606      -3.106903
H        2.886143      -1.273272      -3.107821
H       -3.171995      -2.825717      -1.902292
H        0.594469      -6.999978       0.718542
H       -0.573646      -7.317194      -1.386096
H        1.853323      -7.296181      -1.336214
H        4.417262      -2.804299      -2.010804
35

C        2.689310       0.014818       1.381463
C        1.509312       0.597415       1.214249
O        0.678513      -1.282967      -0.579167
C        0.413384       0.503820       2.203073
O       -0.544112      -0.207186       2.107111
H        1.505478      -2.459392       1.346470
H        2.943748      -0.498525       2.295061
H        3.456526       0.056113       0.617956
H        1.314757       1.265861       0.388103
H        0.534365       1.176978       3.080861
H       -0.146059      -0.925818      -0.265182
Sn       0.516963      -3.152912      -1.106790
O        0.755681      -5.116824      -1.073290
O        0.886311      -3.180370       1.176042
O       -1.336704      -3.109913      -1.194824
O        2.579210      -3.034897      -1.097537
O        0.907109      -2.589257      -2.966672
H        3.204504      -3.432807      -0.487092
H        0.510231      -3.003432      -3.738830
Si      -0.114704      -3.547662       2.427976
Si      -1.967649      -2.660848      -2.606376
Si       0.625230      -6.693021      -0.743698
Si       3.095880      -2.637569      -2.667002
H       -0.082093      -4.993213       2.530076
H       -1.441798      -2.989370       2.354880
H        0.763755      -2.876394       3.364387
H       -1.675707      -3.644508      -3.630539
H        2.825129      -3.640395      -3.642461
H       -1.745342      -1.274606      -3.106903
H        2.886143      -1.273272      -3.107821
H       -3.171995      -2.825717      -1.902292
H        0.594469      -6.999978       0.718542
H       -0.573646      -7.317194      -1.386096
H        1.853323      -7.296181      -1.336214
H        4.417262      -2.804299      -2.010804
35

C        2.623431       0.402846       1.180551
C        1.420264       0.904460       0.915565
O        0.736001      -1.314044      -0.600201
C        0.290234       0.848600       1.875862
O       -0.613766       0.061505       1.819992
H        1.525412      -2.499066       1.352893
H        2.903530       0.028679       2.153734
H        3.400240       0.414063       0.432453
H        1.216851       1.502502       0.039552
H        0.328464       1.613950       2.677751
H       -0.057177      -0.893242      -0.264122
Sn       0.538057      -3.151184      -1.124527
O        0.759102      -5.119300      -1.071536
O        0.875251      -3.193058       1.164058
O       -1.315353      -3.122987      -1.192137
O        2.594430      -3.069979      -1.109678
O        0.902957      -2.630301      -3.002503
H        3.228326      -3.476094      -0.514825
H        0.507723      -3.084392      -3.751344
Si      -0.119463      -3.543845       2.424456
Si      -1.970572      -2.663881      -2.599702
Si       0.628421      -6.694191      -0.748933
Si       3.101178      -2.632704      -2.669547
H       -0.082093      -4.993213       2.530076
H       -1.441798      -2.989370       2.354880
H        0.763755      -2.876394       3.364387
H       -1.675707      -3.644508      -3.630539
H        2.825129      -3.640395      -3.642461
H       -1.745342      -1.274606      -3.106903
H        2.886143      -1.273272      -3.107821
H       -3.171995      -2.825717      -1.902292
H        0.594469      -6.999978       0.718542
H       -0.573646      -7.317194      -1.386096
H        1.853323      -7.296181      -1.336214
H        4.417262      -2.804299      -2.010804
35

C        2.578344       0.726494       0.897384
C        1.348551       1.125129       0.644839
O        0.765757      -1.350907      -0.618120
C        0.218579       1.023373       1.593353
O       -0.594167       0.138752       1.603775
H        1.591881      -2.613434       1.330156
H        2.852659       0.303257       1.855847
H        3.353800       0.774677       0.156498
H        1.076128       1.566662      -0.297773
H        0.147369       1.859320       2.312493
H        0.010780      -0.884052      -0.249265
Sn       0.525089      -3.165668      -1.169869
O        0.766174      -5.131583      -1.068918
O        0.911896      -3.274914       1.167576
O       -1.321525      -3.167862      -1.196659
O        2.587017      -3.159826      -1.141826
O        0.864706      -2.656278      -3.033582
H        3.198532      -3.622526      -0.561297
H        0.454925      -3.115594      -3.772480
Si      -0.106647      -3.553566       2.423064
Si      -1.968905      -2.657753      -2.595572
Si       0.623852      -6.700956      -0.751343
Si       3.117976      -2.636083      -2.662964
H       -0.082093      -4.993213       2.530076
H       -1.441798      -2.989370       2.354880
H        0.763755      -2.876394       3.364387
H       -1.675707      -3.644508      -3.630539
H        2.825129      -3.640395      -3.642461
H       -1.745342      -1.274606      -3.106903
H        2.886143      -1.273272      -3.107821
H       -3.171995      -2.825717      -1.902292
H        0.594469      -6.999978       0.718542
H       -0.573646      -7.317194      -1.386096
H        1.853323      -7.296181      -1.336214
H        4.417262      -2.804299      -2.010804
[GEOCONV]
energy
0.0
8.280034261362744
40.61143440014712
53.67605358569563
72.6222721730519
62.82788129276014
57.47200861645251
55.2874667477372
54.109441146028985
55.070606371235044
52.917510895917076
max-force
0.0
0.009478029848552448
0.009105486458335754
0.005147357985355871
0.003938377348494421
0.0031330976241220727
0.0025825030688354854
0.004361784376808437
0.005262026335032889
0.006860810486551522
0.007994599871659853
max-step
1000.0
1000.0
1000.0
1000.0
1000.0
1000.0
1000.0
1000.0
1000.0
1000.0
1000.0
