[Molden Format]
[Geometries] (XYZ)
35

C        2.171975      -0.115727       0.908331
C        0.776561       0.267913       0.431064
O        0.309334      -0.604106      -0.561027
C       -0.204452       0.289100       1.578794
O       -1.282078      -0.233491       1.512497
H        2.133566      -1.110169       1.341397
H        2.526832       0.595658       1.648125
H        2.845976      -0.125994       0.057404
H        0.807346       1.293510       0.017577
H        0.135818       0.831600       2.477625
H       -0.632511      -0.753598      -0.369290
Sn       0.567360      -3.332966      -0.800497
O        0.750469      -5.192874      -1.129062
O        0.763286      -3.119235       1.082353
O       -1.230851      -2.944397      -1.147984
O        2.580572      -2.826661      -0.943997
O        1.026874      -2.612787      -2.695027
H        3.262085      -3.012539      -0.294883
H        0.636776      -3.037736      -3.461179
Si      -0.095298      -3.540242       2.387065
Si      -1.938836      -2.636291      -2.580763
Si       0.628507      -6.761477      -0.737922
Si       3.039240      -2.632330      -2.598778
H       -0.082093      -4.993213       2.530076
H       -1.441798      -2.989370       2.354880
H        0.763755      -2.876394       3.364387
H       -1.675707      -3.644508      -3.630539
H        2.825129      -3.640395      -3.642461
H       -1.745342      -1.274606      -3.106903
H        2.886143      -1.273272      -3.107821
H       -3.171995      -2.825717      -1.902292
H        0.594469      -6.999978       0.718542
H       -0.573646      -7.317194      -1.386096
H        1.853323      -7.296181      -1.336214
H        4.417262      -2.804299      -2.010804
35

C        2.223373      -0.347476       1.078204
C        0.900374       0.170975       0.564762
O        0.403048      -0.741492      -0.542941
C       -0.155167       0.195098       1.638350
O       -1.248774      -0.286680       1.507010
H        2.011257      -1.451648       1.420662
H        2.601421       0.197093       1.939317
H        2.955372      -0.370785       0.279922
H        0.964878       1.169293       0.107697
H        0.150442       0.704101       2.564366
H       -0.552237      -0.774768      -0.359643
Sn       0.565905      -3.300437      -0.819281
O        0.744497      -5.182434      -1.117594
O        0.791251      -3.117819       1.103221
O       -1.248652      -2.958066      -1.152012
O        2.585897      -2.839975      -0.953619
O        1.016385      -2.604237      -2.717318
H        3.269628      -3.044210      -0.313497
H        0.630579      -3.027964      -3.485575
Si      -0.096159      -3.559999       2.384127
Si      -1.946468      -2.651978      -2.588919
Si       0.620526      -6.754564      -0.748242
Si       3.047013      -2.641298      -2.601483
H       -0.082093      -4.993213       2.530076
H       -1.441798      -2.989370       2.354880
H        0.763755      -2.876394       3.364387
H       -1.675707      -3.644508      -3.630539
H        2.825129      -3.640395      -3.642461
H       -1.745342      -1.274606      -3.106903
H        2.886143      -1.273272      -3.107821
H       -3.171995      -2.825717      -1.902292
H        0.594469      -6.999978       0.718542
H       -0.573646      -7.317194      -1.386096
H        1.853323      -7.296181      -1.336214
H        4.417262      -2.804299      -2.010804
35

C        2.250961      -0.668463       1.270048
C        1.057009       0.007104       0.731407
O        0.511117      -0.953941      -0.545969
C       -0.078639       0.055149       1.709022
O       -1.190625      -0.362962       1.498607
H        1.781514      -1.893533       1.450644
H        2.600650      -0.357206       2.251638
H        3.048732      -0.721908       0.544140
H        1.173805       0.967292       0.228295
H        0.186809       0.521522       2.662711
H       -0.440397      -0.839703      -0.371641
Sn       0.568850      -3.241564      -0.845188
O        0.744743      -5.156271      -1.097392
O        0.836470      -3.086444       1.143396
O       -1.265134      -2.954623      -1.158227
O        2.595737      -2.839120      -0.969091
O        1.003551      -2.583265      -2.747527
H        3.278993      -3.064705      -0.337460
H        0.622461      -3.008841      -3.516087
Si      -0.084995      -3.541795       2.399198
Si      -1.950590      -2.650198      -2.599487
Si       0.620015      -6.730027      -0.748274
Si       3.061734      -2.639640      -2.606415
H       -0.082093      -4.993213       2.530076
H       -1.441798      -2.989370       2.354880
H        0.763755      -2.876394       3.364387
H       -1.675707      -3.644508      -3.630539
H        2.825129      -3.640395      -3.642461
H       -1.745342      -1.274606      -3.106903
H        2.886143      -1.273272      -3.107821
H       -3.171995      -2.825717      -1.902292
H        0.594469      -6.999978       0.718542
H       -0.573646      -7.317194      -1.386096
H        1.853323      -7.296181      -1.336214
H        4.417262      -2.804299      -2.010804
35

C        2.259941      -0.972782       1.482277
C        1.259313      -0.143939       0.861936
O        0.615019      -1.018042      -0.485777
C        0.052058       0.104747       1.703384
O       -1.087707      -0.155047       1.404280
H        1.633783      -2.028103       1.399010
H        2.306702      -1.003360       2.567755
H        3.189365      -1.076037       0.953277
H        1.509298       0.656888       0.168531
H        0.302438       0.585777       2.661464
H       -0.297720      -0.711662      -0.338724
Sn       0.540900      -3.209000      -0.874916
O        0.750622      -5.134146      -1.047338
O        0.850472      -3.104936       1.154379
O       -1.293536      -3.001702      -1.152897
O        2.588778      -2.899031      -1.002874
O        0.980097      -2.599625      -2.779738
H        3.247845      -3.178091      -0.364245
H        0.603014      -3.033877      -3.543439
Si      -0.088707      -3.553054       2.400568
Si      -1.940336      -2.641577      -2.597691
Si       0.627930      -6.716575      -0.736710
Si       3.076542      -2.648005      -2.618355
H       -0.082093      -4.993213       2.530076
H       -1.441798      -2.989370       2.354880
H        0.763755      -2.876394       3.364387
H       -1.675707      -3.644508      -3.630539
H        2.825129      -3.640395      -3.642461
H       -1.745342      -1.274606      -3.106903
H        2.886143      -1.273272      -3.107821
H       -3.171995      -2.825717      -1.902292
H        0.594469      -6.999978       0.718542
H       -0.573646      -7.317194      -1.386096
H        1.853323      -7.296181      -1.336214
H        4.417262      -2.804299      -2.010804
35

C        2.326257      -1.028744       1.637506
C        1.399102      -0.190615       1.066547
O        0.637106      -1.150304      -0.555162
C        0.152358       0.080908       1.828712
O       -0.965434      -0.134296       1.458636
H        1.512071      -2.222031       1.402789
H        2.303619      -1.232551       2.698074
H        3.277139      -1.155218       1.146416
H        1.657424       0.560721       0.332188
H        0.348987       0.520743       2.829314
H       -0.255089      -0.809795      -0.443115
Sn       0.546254      -3.205323      -0.939055
O        0.757103      -5.142428      -1.059584
O        0.876038      -3.109053       1.192911
O       -1.302628      -3.052032      -1.179854
O        2.591646      -2.911580      -1.025946
O        0.981285      -2.617183      -2.849270
H        3.268715      -3.179603      -0.401815
H        0.623148      -3.053533      -3.622419
Si      -0.104016      -3.553516       2.420484
Si      -1.957689      -2.644018      -2.602313
Si       0.627302      -6.724098      -0.743564
Si       3.073460      -2.633546      -2.636968
H       -0.082093      -4.993213       2.530076
H       -1.441798      -2.989370       2.354880
H        0.763755      -2.876394       3.364387
H       -1.675707      -3.644508      -3.630539
H        2.825129      -3.640395      -3.642461
H       -1.745342      -1.274606      -3.106903
H        2.886143      -1.273272      -3.107821
H       -3.171995      -2.825717      -1.902292
H        0.594469      -6.999978       0.718542
H       -0.573646      -7.317194      -1.386096
H        1.853323      -7.296181      -1.336214
H        4.417262      -2.804299      -2.010804
35

C        2.671878      -0.916046       1.731321
C        1.648100      -0.127883       1.449276
O        0.646741      -1.269904      -0.556426
C        0.435435      -0.024205       2.293372
O       -0.654639      -0.419273       1.980400
H        1.533467      -2.447569       1.387036
H        2.752223      -1.446673       2.661387
H        3.526038      -0.951358       1.073728
H        1.697728       0.594996       0.649466
H        0.595657       0.498592       3.259686
H       -0.220953      -0.911808      -0.349081
Sn       0.537656      -3.201652      -1.004893
O        0.765413      -5.141526      -1.046414
O        0.945731      -3.204961       1.216132
O       -1.314002      -3.080640      -1.194415
O        2.596947      -2.961188      -1.059345
O        0.962216      -2.654799      -2.910486
H        3.264822      -3.280234      -0.448831
H        0.603495      -3.098132      -3.676411
Si      -0.104775      -3.557466       2.442521
Si      -1.962111      -2.627271      -2.606250
Si       0.620749      -6.720361      -0.757587
Si       3.086884      -2.651696      -2.643824
H       -0.082093      -4.993213       2.530076
H       -1.441798      -2.989370       2.354880
H        0.763755      -2.876394       3.364387
H       -1.675707      -3.644508      -3.630539
H        2.825129      -3.640395      -3.642461
H       -1.745342      -1.274606      -3.106903
H        2.886143      -1.273272      -3.107821
H       -3.171995      -2.825717      -1.902292
H        0.594469      -6.999978       0.718542
H       -0.573646      -7.317194      -1.386096
H        1.853323      -7.296181      -1.336214
H        4.417262      -2.804299      -2.010804
35

C        2.754203      -0.895382       1.766496
C        1.737731      -0.088559       1.510564
O        0.689837      -1.281488      -0.569975
C        0.519358       0.002300       2.346359
O       -0.582349      -0.329680       2.004975
H        1.512857      -2.449854       1.386483
H        2.791605      -1.493111       2.661444
H        3.595481      -0.953516       1.097779
H        1.770460       0.621711       0.691289
H        0.696970       0.455302       3.352572
H       -0.156848      -0.896828      -0.340515
Sn       0.536987      -3.183687      -1.034622
O        0.769157      -5.130550      -1.041811
O        0.921105      -3.202649       1.211325
O       -1.314301      -3.080671      -1.185262
O        2.596137      -2.999517      -1.071300
O        0.948934      -2.660081      -2.927375
H        3.256955      -3.324309      -0.454710
H        0.590761      -3.130981      -3.679647
Si      -0.107261      -3.567086       2.439454
Si      -1.962657      -2.636032      -2.603588
Si       0.626831      -6.709722      -0.748473
Si       3.095821      -2.642962      -2.649489
H       -0.082093      -4.993213       2.530076
H       -1.441798      -2.989370       2.354880
H        0.763755      -2.876394       3.364387
H       -1.675707      -3.644508      -3.630539
H        2.825129      -3.640395      -3.642461
H       -1.745342      -1.274606      -3.106903
H        2.886143      -1.273272      -3.107821
H       -3.171995      -2.825717      -1.902292
H        0.594469      -6.999978       0.718542
H       -0.573646      -7.317194      -1.386096
H        1.853323      -7.296181      -1.336214
H        4.417262      -2.804299      -2.010804
35

C        2.721628      -0.661466       1.733803
C        1.639233       0.074901       1.525801
O        0.678017      -1.280185      -0.556698
C        0.434453       0.058913       2.387833
O       -0.614809      -0.451901       2.077398
H        1.517244      -2.471406       1.339547
H        2.806848      -1.308723       2.589686
H        3.569297      -0.634771       1.055123
H        1.587096       0.789913       0.726781
H        0.551770       0.571540       3.346357
H       -0.163930      -0.920555      -0.281381
Sn       0.524176      -3.187013      -1.070350
O        0.764765      -5.127192      -1.025501
O        0.902769      -3.203520       1.197640
O       -1.325675      -3.105933      -1.195712
O        2.588509      -3.020967      -1.099891
O        0.910156      -2.674182      -2.953242
H        3.220593      -3.374706      -0.475221
H        0.546536      -3.115291      -3.723571
Si      -0.133245      -3.551996       2.423548
Si      -1.959823      -2.649258      -2.600138
Si       0.637495      -6.716652      -0.739163
Si       3.095028      -2.626892      -2.654354
H       -0.082093      -4.993213       2.530076
H       -1.441798      -2.989370       2.354880
H        0.763755      -2.876394       3.364387
H       -1.675707      -3.644508      -3.630539
H        2.825129      -3.640395      -3.642461
H       -1.745342      -1.274606      -3.106903
H        2.886143      -1.273272      -3.107821
H       -3.171995      -2.825717      -1.902292
H        0.594469      -6.999978       0.718542
H       -0.573646      -7.317194      -1.386096
H        1.853323      -7.296181      -1.336214
H        4.417262      -2.804299      -2.010804
35

C        2.769706      -0.082306       1.394324
C        1.589203       0.489439       1.254967
O        0.703201      -1.310421      -0.581831
C        0.470101       0.378102       2.211541
O       -0.487821      -0.332025       2.069895
H        1.551494      -2.557626       1.360068
H        3.028942      -0.661605       2.264120
H        3.529804       0.004561       0.635600
H        1.382635       1.117579       0.397808
H        0.561632       1.029609       3.108126
H       -0.121913      -0.961833      -0.242690
Sn       0.528146      -3.180459      -1.105427
O        0.755290      -5.134133      -1.055211
O        0.919631      -3.255133       1.187730
O       -1.325987      -3.127280      -1.193594
O        2.595294      -3.079539      -1.098406
O        0.921327      -2.646429      -2.976552
H        3.231546      -3.479340      -0.503513
H        0.544025      -3.082280      -3.741097
Si      -0.109850      -3.555608       2.433991
Si      -1.966470      -2.647901      -2.604943
Si       0.623644      -6.710177      -0.749139
Si       3.103096      -2.639688      -2.650664
H       -0.082093      -4.993213       2.530076
H       -1.441798      -2.989370       2.354880
H        0.763755      -2.876394       3.364387
H       -1.675707      -3.644508      -3.630539
H        2.825129      -3.640395      -3.642461
H       -1.745342      -1.274606      -3.106903
H        2.886143      -1.273272      -3.107821
H       -3.171995      -2.825717      -1.902292
H        0.594469      -6.999978       0.718542
H       -0.573646      -7.317194      -1.386096
H        1.853323      -7.296181      -1.336214
H        4.417262      -2.804299      -2.010804
35

C        2.697805       0.229887       1.218159
C        1.475712       0.710661       1.090254
O        0.709246      -1.324253      -0.584821
C        0.385179       0.508748       2.070377
O       -0.507694      -0.291805       1.946833
H        1.584735      -2.619737       1.345622
H        2.998153      -0.325520       2.093440
H        3.442048       0.352457       0.450065
H        1.192332       1.258202       0.203131
H        0.430166       1.172150       2.957915
H       -0.111530      -0.995160      -0.217020
Sn       0.521545      -3.185603      -1.130004
O        0.743668      -5.138905      -1.068334
O        0.933659      -3.301363       1.185932
O       -1.330959      -3.150622      -1.198637
O        2.590111      -3.125557      -1.110327
O        0.913672      -2.687155      -3.000543
H        3.219042      -3.549528      -0.528531
H        0.566926      -3.180950      -3.747028
Si      -0.106930      -3.553350       2.433675
Si      -1.961052      -2.652220      -2.606553
Si       0.629456      -6.717961      -0.749964
Si       3.101557      -2.642830      -2.649922
H       -0.082093      -4.993213       2.530076
H       -1.441798      -2.989370       2.354880
H        0.763755      -2.876394       3.364387
H       -1.675707      -3.644508      -3.630539
H        2.825129      -3.640395      -3.642461
H       -1.745342      -1.274606      -3.106903
H        2.886143      -1.273272      -3.107821
H       -3.171995      -2.825717      -1.902292
H        0.594469      -6.999978       0.718542
H       -0.573646      -7.317194      -1.386096
H        1.853323      -7.296181      -1.336214
H        4.417262      -2.804299      -2.010804
35

C        2.578344       0.726494       0.897384
C        1.348551       1.125129       0.644839
O        0.765757      -1.350907      -0.618120
C        0.218579       1.023373       1.593353
O       -0.594167       0.138752       1.603775
H        1.591881      -2.613434       1.330156
H        2.852659       0.303257       1.855847
H        3.353800       0.774677       0.156498
H        1.076128       1.566662      -0.297773
H        0.147369       1.859320       2.312493
H        0.010780      -0.884052      -0.249265
Sn       0.525089      -3.165668      -1.169869
O        0.766174      -5.131583      -1.068918
O        0.911896      -3.274914       1.167576
O       -1.321525      -3.167862      -1.196659
O        2.587017      -3.159826      -1.141826
O        0.864706      -2.656278      -3.033582
H        3.198532      -3.622526      -0.561297
H        0.454925      -3.115594      -3.772480
Si      -0.106647      -3.553566       2.423064
Si      -1.968905      -2.657753      -2.595572
Si       0.623852      -6.700956      -0.751343
Si       3.117976      -2.636083      -2.662964
H       -0.082093      -4.993213       2.530076
H       -1.441798      -2.989370       2.354880
H        0.763755      -2.876394       3.364387
H       -1.675707      -3.644508      -3.630539
H        2.825129      -3.640395      -3.642461
H       -1.745342      -1.274606      -3.106903
H        2.886143      -1.273272      -3.107821
H       -3.171995      -2.825717      -1.902292
H        0.594469      -6.999978       0.718542
H       -0.573646      -7.317194      -1.386096
H        1.853323      -7.296181      -1.336214
H        4.417262      -2.804299      -2.010804
[GEOCONV]
energy
0.0
7.962646509120532
41.49943106614228
53.150599103864806
69.00239645503461
55.91992986731202
53.23227680823038
53.11231466721074
52.08464372594608
51.667178415904345
52.917510895917076
max-force
0.0
0.009478029848552448
0.009105486458335754
0.007104557269704912
0.0019894283088496803
0.031057773160526818
0.0028892813111911927
0.006805190859338598
0.001354418859681652
0.003048343035028823
0.007994599871659853
max-step
1000.0
1000.0
1000.0
1000.0
1000.0
1000.0
1000.0
1000.0
1000.0
1000.0
1000.0
