[Molden Format]
[Geometries] (XYZ)
35

C        2.171975      -0.115727       0.908331
C        0.776561       0.267913       0.431064
O        0.309334      -0.604106      -0.561027
C       -0.204452       0.289100       1.578794
O       -1.282078      -0.233491       1.512497
H        2.133566      -1.110169       1.341397
H        2.526832       0.595658       1.648125
H        2.845976      -0.125994       0.057404
H        0.807346       1.293510       0.017577
H        0.135818       0.831600       2.477625
H       -0.632511      -0.753598      -0.369290
Sn       0.567360      -3.332966      -0.800497
O        0.750469      -5.192874      -1.129062
O        0.763286      -3.119235       1.082353
O       -1.230851      -2.944397      -1.147984
O        2.580572      -2.826661      -0.943997
O        1.026874      -2.612787      -2.695027
H        3.262085      -3.012539      -0.294883
H        0.636776      -3.037736      -3.461179
Si      -0.095298      -3.540242       2.387065
Si      -1.938836      -2.636291      -2.580763
Si       0.628507      -6.761477      -0.737922
Si       3.039240      -2.632330      -2.598778
H       -0.082093      -4.993213       2.530076
H       -1.441798      -2.989370       2.354880
H        0.763755      -2.876394       3.364387
H       -1.675707      -3.644508      -3.630539
H        2.825129      -3.640395      -3.642461
H       -1.745342      -1.274606      -3.106903
H        2.886143      -1.273272      -3.107821
H       -3.171995      -2.825717      -1.902292
H        0.594469      -6.999978       0.718542
H       -0.573646      -7.317194      -1.386096
H        1.853323      -7.296181      -1.336214
H        4.417262      -2.804299      -2.010804
35

C        2.221352      -0.335949       1.071583
C        0.891953       0.174968       0.559268
O        0.397826      -0.738592      -0.545131
C       -0.160133       0.193395       1.635928
O       -1.251915      -0.292267       1.507426
H        2.020473      -1.440365       1.423152
H        2.603388       0.223928       1.922079
H        2.947008      -0.360334       0.268001
H        0.953069       1.175804       0.110510
H        0.146209       0.702924       2.561826
H       -0.557095      -0.779433      -0.361252
Sn       0.566843      -3.302091      -0.817456
O        0.744033      -5.183260      -1.120049
O        0.789747      -3.117877       1.101725
O       -1.247557      -2.956497      -1.151705
O        2.585006      -2.837908      -0.950622
O        1.018690      -2.603357      -2.715370
H        3.269456      -3.040158      -0.310346
H        0.632117      -3.026652      -3.483727
Si      -0.096623      -3.560608       2.383634
Si      -1.946999      -2.652394      -2.587943
Si       0.620349      -6.755837      -0.749138
Si       3.046429      -2.641107      -2.600475
H       -0.082093      -4.993213       2.530076
H       -1.441798      -2.989370       2.354880
H        0.763755      -2.876394       3.364387
H       -1.675707      -3.644508      -3.630539
H        2.825129      -3.640395      -3.642461
H       -1.745342      -1.274606      -3.106903
H        2.886143      -1.273272      -3.107821
H       -3.171995      -2.825717      -1.902292
H        0.594469      -6.999978       0.718542
H       -0.573646      -7.317194      -1.386096
H        1.853323      -7.296181      -1.336214
H        4.417262      -2.804299      -2.010804
35

C        2.251098      -0.642997       1.256210
C        1.042155       0.017518       0.719583
O        0.504101      -0.951827      -0.551366
C       -0.087422       0.049923       1.703233
O       -1.194370      -0.380632       1.496918
H        1.797862      -1.877843       1.457130
H        2.619507      -0.298007       2.222317
H        3.035403      -0.696493       0.517254
H        1.149067       0.982768       0.232992
H        0.177407       0.516837       2.657749
H       -0.448908      -0.851320      -0.375612
Sn       0.571704      -3.244919      -0.841417
O        0.744735      -5.158966      -1.101214
O        0.834031      -3.088334       1.141373
O       -1.262610      -2.950034      -1.158253
O        2.594019      -2.835423      -0.962775
O        1.008950      -2.581543      -2.744056
H        3.280481      -3.055437      -0.331879
H        0.626910      -3.006219      -3.513300
Si      -0.086825      -3.546500       2.398101
Si      -1.952054      -2.650249      -2.597680
Si       0.619299      -6.734077      -0.749050
Si       3.060257      -2.639393      -2.605358
H       -0.082093      -4.993213       2.530076
H       -1.441798      -2.989370       2.354880
H        0.763755      -2.876394       3.364387
H       -1.675707      -3.644508      -3.630539
H        2.825129      -3.640395      -3.642461
H       -1.745342      -1.274606      -3.106903
H        2.886143      -1.273272      -3.107821
H       -3.171995      -2.825717      -1.902292
H        0.594469      -6.999978       0.718542
H       -0.573646      -7.317194      -1.386096
H        1.853323      -7.296181      -1.336214
H        4.417262      -2.804299      -2.010804
35

C        2.288967      -0.905082       1.443578
C        1.233027      -0.088609       0.859602
O        0.613746      -0.987337      -0.467284
C        0.047726       0.134364       1.755721
O       -1.098521      -0.166195       1.506351
H        1.659416      -2.040415       1.408085
H        2.380495      -0.934896       2.514845
H        3.210979      -0.986999       0.881320
H        1.432792       0.757893       0.178168
H        0.314839       0.621129       2.693607
H       -0.308118      -0.718576      -0.307293
Sn       0.548301      -3.219592      -0.869378
O        0.754258      -5.142351      -1.046120
O        0.847313      -3.116929       1.149089
O       -1.295016      -3.011481      -1.140182
O        2.596517      -2.896552      -1.008595
O        0.967103      -2.600986      -2.777782
H        3.245742      -3.185456      -0.370271
H        0.596972      -3.032793      -3.545091
Si      -0.099012      -3.557765       2.385540
Si      -1.935324      -2.637521      -2.589443
Si       0.633059      -6.716301      -0.738154
Si       3.060290      -2.643262      -2.616644
H       -0.082093      -4.993213       2.530076
H       -1.441798      -2.989370       2.354880
H        0.763755      -2.876394       3.364387
H       -1.675707      -3.644508      -3.630539
H        2.825129      -3.640395      -3.642461
H       -1.745342      -1.274606      -3.106903
H        2.886143      -1.273272      -3.107821
H       -3.171995      -2.825717      -1.902292
H        0.594469      -6.999978       0.718542
H       -0.573646      -7.317194      -1.386096
H        1.853323      -7.296181      -1.336214
H        4.417262      -2.804299      -2.010804
35

C        2.359093      -1.036346       1.663891
C        1.417114      -0.201798       1.130182
O        0.628513      -1.175964      -0.566758
C        0.172478       0.027751       1.913747
O       -0.940409      -0.209773       1.548612
H        1.503910      -2.256972       1.405285
H        2.365800      -1.283022       2.713787
H        3.295578      -1.157203       1.141638
H        1.646550       0.567416       0.409654
H        0.363609       0.453811       2.919916
H       -0.256711      -0.834021      -0.430797
Sn       0.548969      -3.209008      -0.941500
O        0.751139      -5.143589      -1.060087
O        0.886079      -3.105353       1.200227
O       -1.302870      -3.055345      -1.186373
O        2.592474      -2.901458      -1.027731
O        0.987608      -2.623824      -2.857150
H        3.273673      -3.162575      -0.406904
H        0.629589      -3.059925      -3.631358
Si      -0.106954      -3.550230       2.423518
Si      -1.958390      -2.645368      -2.603486
Si       0.624727      -6.726034      -0.743886
Si       3.071548      -2.632751      -2.637526
H       -0.082093      -4.993213       2.530076
H       -1.441798      -2.989370       2.354880
H        0.763755      -2.876394       3.364387
H       -1.675707      -3.644508      -3.630539
H        2.825129      -3.640395      -3.642461
H       -1.745342      -1.274606      -3.106903
H        2.886143      -1.273272      -3.107821
H       -3.171995      -2.825717      -1.902292
H        0.594469      -6.999978       0.718542
H       -0.573646      -7.317194      -1.386096
H        1.853323      -7.296181      -1.336214
H        4.417262      -2.804299      -2.010804
35

C        2.551958      -0.949564       1.685143
C        1.554413      -0.136453       1.316222
O        0.650624      -1.244793      -0.546140
C        0.343550       0.014053       2.158028
O       -0.756882      -0.380666       1.895101
H        1.502045      -2.385792       1.394047
H        2.627423      -1.361204       2.682439
H        3.425631      -1.047010       1.063733
H        1.667246       0.611146       0.546189
H        0.536160       0.551038       3.112177
H       -0.222134      -0.885975      -0.383620
Sn       0.533950      -3.182889      -0.985276
O        0.757156      -5.128157      -1.064919
O        0.906400      -3.163682       1.211772
O       -1.316268      -3.058739      -1.181791
O        2.594252      -2.927921      -1.036550
O        0.975105      -2.609546      -2.882390
H        3.267178      -3.252958      -0.436430
H        0.629365      -3.022151      -3.679978
Si      -0.110115      -3.556523       2.438388
Si      -1.962435      -2.642757      -2.603925
Si       0.628284      -6.707006      -0.749229
Si       3.074894      -2.634728      -2.639519
H       -0.082093      -4.993213       2.530076
H       -1.441798      -2.989370       2.354880
H        0.763755      -2.876394       3.364387
H       -1.675707      -3.644508      -3.630539
H        2.825129      -3.640395      -3.642461
H       -1.745342      -1.274606      -3.106903
H        2.886143      -1.273272      -3.107821
H       -3.171995      -2.825717      -1.902292
H        0.594469      -6.999978       0.718542
H       -0.573646      -7.317194      -1.386096
H        1.853323      -7.296181      -1.336214
H        4.417262      -2.804299      -2.010804
35

C        2.680031      -0.837818       1.732048
C        1.646579      -0.064437       1.464188
O        0.640648      -1.292891      -0.585161
C        0.445494       0.015941       2.313985
O       -0.654967      -0.346180       2.023172
H        1.473648      -2.382947       1.373302
H        2.731997      -1.417027       2.647689
H        3.528547      -0.892080       1.062608
H        1.672246       0.660401       0.646992
H        0.642218       0.500885       3.305954
H       -0.215121      -0.928238      -0.360316
Sn       0.528020      -3.172356      -1.033005
O        0.767112      -5.111154      -1.049525
O        0.891331      -3.154064       1.212726
O       -1.328789      -3.081031      -1.192201
O        2.587014      -2.972891      -1.059978
O        0.930895      -2.634667      -2.930116
H        3.250077      -3.282700      -0.441629
H        0.579935      -3.096752      -3.696182
Si      -0.108308      -3.548800       2.442788
Si      -1.964396      -2.650164      -2.608221
Si       0.630220      -6.690937      -0.741701
Si       3.086064      -2.627893      -2.650219
H       -0.082093      -4.993213       2.530076
H       -1.441798      -2.989370       2.354880
H        0.763755      -2.876394       3.364387
H       -1.675707      -3.644508      -3.630539
H        2.825129      -3.640395      -3.642461
H       -1.745342      -1.274606      -3.106903
H        2.886143      -1.273272      -3.107821
H       -3.171995      -2.825717      -1.902292
H        0.594469      -6.999978       0.718542
H       -0.573646      -7.317194      -1.386096
H        1.853323      -7.296181      -1.336214
H        4.417262      -2.804299      -2.010804
35

C        2.790961      -0.393350       1.564740
C        1.646516       0.260013       1.385867
O        0.709677      -1.284508      -0.579976
C        0.503143       0.227437       2.314235
O       -0.506332      -0.380843       2.127457
H        1.506585      -2.486246       1.362919
H        2.966071      -0.980327       2.452936
H        3.586214      -0.373599       0.841031
H        1.527262       0.938639       0.556984
H        0.636791       0.839257       3.237833
H       -0.129181      -0.925949      -0.288131
Sn       0.532278      -3.191442      -1.088085
O        0.755989      -5.142960      -1.051314
O        0.882654      -3.208873       1.183087
O       -1.321086      -3.113952      -1.196830
O        2.590080      -3.047817      -1.107755
O        0.915738      -2.641606      -2.955618
H        3.225928      -3.413916      -0.491436
H        0.534028      -3.049656      -3.737057
Si      -0.124482      -3.565499       2.434455
Si      -1.972705      -2.660444      -2.610794
Si       0.620924      -6.718916      -0.747236
Si       3.105328      -2.637235      -2.659172
H       -0.082093      -4.993213       2.530076
H       -1.441798      -2.989370       2.354880
H        0.763755      -2.876394       3.364387
H       -1.675707      -3.644508      -3.630539
H        2.825129      -3.640395      -3.642461
H       -1.745342      -1.274606      -3.106903
H        2.886143      -1.273272      -3.107821
H       -3.171995      -2.825717      -1.902292
H        0.594469      -6.999978       0.718542
H       -0.573646      -7.317194      -1.386096
H        1.853323      -7.296181      -1.336214
H        4.417262      -2.804299      -2.010804
35

C        2.699180      -0.002390       1.364634
C        1.517057       0.554024       1.185987
O        0.683884      -1.314799      -0.591079
C        0.398678       0.464245       2.140916
O       -0.554803      -0.252053       2.024620
H        1.511777      -2.491606       1.349741
H        2.950620      -0.535063       2.268374
H        3.464957       0.044928       0.610114
H        1.325266       1.180805       0.324577
H        0.490508       1.148586       3.014565
H       -0.143491      -0.952306      -0.268244
Sn       0.522802      -3.175533      -1.106583
O        0.759442      -5.130815      -1.062755
O        0.890697      -3.207603       1.180958
O       -1.333492      -3.136527      -1.194958
O        2.589674      -3.062026      -1.094741
O        0.919940      -2.624547      -2.972797
H        3.221610      -3.454452      -0.492440
H        0.540095      -3.049151      -3.746488
Si      -0.110709      -3.553100       2.437607
Si      -1.969454      -2.651726      -2.607209
Si       0.624165      -6.704471      -0.746533
Si       3.105159      -2.638413      -2.651127
H       -0.082093      -4.993213       2.530076
H       -1.441798      -2.989370       2.354880
H        0.763755      -2.876394       3.364387
H       -1.675707      -3.644508      -3.630539
H        2.825129      -3.640395      -3.642461
H       -1.745342      -1.274606      -3.106903
H        2.886143      -1.273272      -3.107821
H       -3.171995      -2.825717      -1.902292
H        0.594469      -6.999978       0.718542
H       -0.573646      -7.317194      -1.386096
H        1.853323      -7.296181      -1.336214
H        4.417262      -2.804299      -2.010804
35

C        2.647140       0.345599       1.187287
C        1.440795       0.851821       0.952410
O        0.727856      -1.317659      -0.604579
C        0.313248       0.773996       1.909737
O       -0.586840      -0.016958       1.847300
H        1.543478      -2.504649       1.338763
H        2.907765      -0.103122       2.134830
H        3.424406       0.378124       0.441427
H        1.222213       1.425987       0.065481
H        0.345069       1.534300       2.715761
H       -0.066871      -0.907724      -0.263189
Sn       0.525161      -3.156038      -1.137272
O        0.761896      -5.119551      -1.070755
O        0.892130      -3.204271       1.159537
O       -1.326837      -3.136542      -1.196611
O        2.584844      -3.083192      -1.122739
O        0.889683      -2.629563      -3.006944
H        3.210169      -3.502548      -0.526141
H        0.489188      -3.075267      -3.758856
Si      -0.116655      -3.534038       2.413415
Si      -1.973832      -2.667895      -2.603391
Si       0.628194      -6.692463      -0.745429
Si       3.101327      -2.633861      -2.675264
H       -0.082093      -4.993213       2.530076
H       -1.441798      -2.989370       2.354880
H        0.763755      -2.876394       3.364387
H       -1.675707      -3.644508      -3.630539
H        2.825129      -3.640395      -3.642461
H       -1.745342      -1.274606      -3.106903
H        2.886143      -1.273272      -3.107821
H       -3.171995      -2.825717      -1.902292
H        0.594469      -6.999978       0.718542
H       -0.573646      -7.317194      -1.386096
H        1.853323      -7.296181      -1.336214
H        4.417262      -2.804299      -2.010804
35

C        2.578344       0.726494       0.897384
C        1.348551       1.125129       0.644839
O        0.765757      -1.350907      -0.618120
C        0.218579       1.023373       1.593353
O       -0.594167       0.138752       1.603775
H        1.591881      -2.613434       1.330156
H        2.852659       0.303257       1.855847
H        3.353800       0.774677       0.156498
H        1.076128       1.566662      -0.297773
H        0.147369       1.859320       2.312493
H        0.010780      -0.884052      -0.249265
Sn       0.525089      -3.165668      -1.169869
O        0.766174      -5.131583      -1.068918
O        0.911896      -3.274914       1.167576
O       -1.321525      -3.167862      -1.196659
O        2.587017      -3.159826      -1.141826
O        0.864706      -2.656278      -3.033582
H        3.198532      -3.622526      -0.561297
H        0.454925      -3.115594      -3.772480
Si      -0.106647      -3.553566       2.423064
Si      -1.968905      -2.657753      -2.595572
Si       0.623852      -6.700956      -0.751343
Si       3.117976      -2.636083      -2.662964
H       -0.082093      -4.993213       2.530076
H       -1.441798      -2.989370       2.354880
H        0.763755      -2.876394       3.364387
H       -1.675707      -3.644508      -3.630539
H        2.825129      -3.640395      -3.642461
H       -1.745342      -1.274606      -3.106903
H        2.886143      -1.273272      -3.107821
H       -3.171995      -2.825717      -1.902292
H        0.594469      -6.999978       0.718542
H       -0.573646      -7.317194      -1.386096
H        1.853323      -7.296181      -1.336214
H        4.417262      -2.804299      -2.010804
[GEOCONV]
energy
0.0
7.703182646611822
40.947759202099405
53.193566239613574
69.03949703546095
60.382454282858816
54.573180942374165
53.52266648184013
52.86016576806287
54.00536810284393
52.917510895917076
max-force
0.0
0.009478029848552448
0.009105486458335754
0.007311602698763646
0.0029273749626972704
0.001330252151714311
0.004459139264153198
0.006215056892393576
0.0018205503579898552
0.006860810486551522
0.007994599871659853
max-step
1000.0
1000.0
1000.0
1000.0
1000.0
1000.0
1000.0
1000.0
1000.0
1000.0
1000.0
