[Molden Format]
[Geometries] (XYZ)
35

C        2.171975      -0.115727       0.908331
C        0.776561       0.267913       0.431064
O        0.309334      -0.604106      -0.561027
C       -0.204452       0.289100       1.578794
O       -1.282078      -0.233491       1.512497
H        2.133566      -1.110169       1.341397
H        2.526832       0.595658       1.648125
H        2.845976      -0.125994       0.057404
H        0.807346       1.293510       0.017577
H        0.135818       0.831600       2.477625
H       -0.632511      -0.753598      -0.369290
Sn       0.567360      -3.332966      -0.800497
O        0.750469      -5.192874      -1.129062
O        0.763286      -3.119235       1.082353
O       -1.230851      -2.944397      -1.147984
O        2.580572      -2.826661      -0.943997
O        1.026874      -2.612787      -2.695027
H        3.262085      -3.012539      -0.294883
H        0.636776      -3.037736      -3.461179
Si      -0.095298      -3.540242       2.387065
Si      -1.938836      -2.636291      -2.580763
Si       0.628507      -6.761477      -0.737922
Si       3.039240      -2.632330      -2.598778
H       -0.082093      -4.993213       2.530076
H       -1.441798      -2.989370       2.354880
H        0.763755      -2.876394       3.364387
H       -1.675707      -3.644508      -3.630539
H        2.825129      -3.640395      -3.642461
H       -1.745342      -1.274606      -3.106903
H        2.886143      -1.273272      -3.107821
H       -3.171995      -2.825717      -1.902292
H        0.594469      -6.999978       0.718542
H       -0.573646      -7.317194      -1.386096
H        1.853323      -7.296181      -1.336214
H        4.417262      -2.804299      -2.010804
35

C        2.227670      -0.374893       1.103039
C        0.958160       0.174941       0.527774
O        0.433272      -0.742637      -0.539791
C       -0.140429       0.323367       1.544386
O       -1.259247      -0.081840       1.374909
H        1.986283      -1.432871       1.407658
H        2.536250       0.112883       2.025444
H        3.021858      -0.397486       0.368104
H        1.092809       1.111102      -0.036748
H        0.158342       0.849169       2.465312
H       -0.528692      -0.729046      -0.392303
Sn       0.554586      -3.299971      -0.828339
O        0.745889      -5.182989      -1.100977
O        0.797898      -3.137009       1.106314
O       -1.259213      -2.979072      -1.149358
O        2.585534      -2.871522      -0.971062
O        0.997733      -2.627713      -2.725458
H        3.263119      -3.093697      -0.329503
H        0.616518      -3.067571      -3.486871
Si      -0.090169      -3.569292       2.386098
Si      -1.942025      -2.650789      -2.589996
Si       0.616037      -6.756478      -0.740806
Si       3.049630      -2.642014      -2.611092
H       -0.082093      -4.993213       2.530076
H       -1.441798      -2.989370       2.354880
H        0.763755      -2.876394       3.364387
H       -1.675707      -3.644508      -3.630539
H        2.825129      -3.640395      -3.642461
H       -1.745342      -1.274606      -3.106903
H        2.886143      -1.273272      -3.107821
H       -3.171995      -2.825717      -1.902292
H        0.594469      -6.999978       0.718542
H       -0.573646      -7.317194      -1.386096
H        1.853323      -7.296181      -1.336214
H        4.417262      -2.804299      -2.010804
35

C        2.243753      -0.635271       1.277617
C        1.139494       0.060587       0.602062
O        0.534028      -0.894090      -0.533149
C       -0.037485       0.391824       1.465697
O       -1.180223       0.136326       1.185685
H        1.814545      -1.719685       1.419805
H        2.406855      -0.373678       2.321896
H        3.144616      -0.695879       0.688104
H        1.399631       0.857002      -0.104175
H        0.227436       0.912806       2.396411
H       -0.418265      -0.710510      -0.445010
Sn       0.538269      -3.265254      -0.863207
O        0.748122      -5.168254      -1.070700
O        0.830081      -3.143163       1.123230
O       -1.288943      -3.012352      -1.150572
O        2.583419      -2.913127      -0.999888
O        0.962921      -2.653989      -2.764987
H        3.251443      -3.169777      -0.362065
H        0.593751      -3.119330      -3.515939
Si      -0.085688      -3.568414       2.383907
Si      -1.946693      -2.655497      -2.596379
Si       0.615834      -6.746220      -0.739722
Si       3.058139      -2.644980      -2.621564
H       -0.082093      -4.993213       2.530076
H       -1.441798      -2.989370       2.354880
H        0.763755      -2.876394       3.364387
H       -1.675707      -3.644508      -3.630539
H        2.825129      -3.640395      -3.642461
H       -1.745342      -1.274606      -3.106903
H        2.886143      -1.273272      -3.107821
H       -3.171995      -2.825717      -1.902292
H        0.594469      -6.999978       0.718542
H       -0.573646      -7.317194      -1.386096
H        1.853323      -7.296181      -1.336214
H        4.417262      -2.804299      -2.010804
35

C        2.170436      -0.880107       1.401140
C        1.266353      -0.066864       0.602947
O        0.577304      -1.012546      -0.530479
C        0.133027       0.573626       1.297565
O       -0.996108       0.554362       0.910262
H        1.626284      -1.947157       1.351592
H        2.134954      -0.812207       2.474674
H        3.162851      -0.960321       0.968692
H        1.684831       0.509530      -0.242619
H        0.416591       1.091088       2.235755
H       -0.337486      -0.667394      -0.536300
Sn       0.478605      -3.249439      -0.919474
O        0.739669      -5.156021      -1.055599
O        0.841046      -3.164029       1.094243
O       -1.355090      -3.064773      -1.153800
O        2.565318      -2.988193      -1.049323
O        0.898773      -2.707913      -2.813521
H        3.216585      -3.293716      -0.422789
H        0.575629      -3.207552      -3.556629
Si      -0.070651      -3.550907       2.373256
Si      -1.963818      -2.652906      -2.616789
Si       0.623324      -6.731282      -0.731175
Si       3.060770      -2.642631      -2.617863
H       -0.082093      -4.993213       2.530076
H       -1.441798      -2.989370       2.354880
H        0.763755      -2.876394       3.364387
H       -1.675707      -3.644508      -3.630539
H        2.825129      -3.640395      -3.642461
H       -1.745342      -1.274606      -3.106903
H        2.886143      -1.273272      -3.107821
H       -3.171995      -2.825717      -1.902292
H        0.594469      -6.999978       0.718542
H       -0.573646      -7.317194      -1.386096
H        1.853323      -7.296181      -1.336214
H        4.417262      -2.804299      -2.010804
35

C        2.301753      -0.988518       1.642244
C        1.524428      -0.121799       0.913024
O        0.648421      -1.172912      -0.585392
C        0.301980       0.454843       1.527587
O       -0.809602       0.420045       1.084337
H        1.529804      -2.176886       1.399840
H        2.122976      -1.105649       2.700642
H        3.295407      -1.217339       1.293625
H        1.923499       0.435402       0.074944
H        0.511728       0.954280       2.496723
H       -0.219850      -0.758343      -0.574975
Sn       0.525604      -3.200025      -0.960798
O        0.754672      -5.139354      -1.058349
O        0.894120      -3.127555       1.181355
O       -1.323190      -3.066912      -1.167869
O        2.589176      -2.978774      -1.041621
O        0.947264      -2.657416      -2.866453
H        3.250464      -3.277239      -0.415520
H        0.606594      -3.143173      -3.618054
Si      -0.094152      -3.550459       2.405605
Si      -1.959110      -2.644130      -2.600714
Si       0.625437      -6.719154      -0.742175
Si       3.079993      -2.638029      -2.634572
H       -0.082093      -4.993213       2.530076
H       -1.441798      -2.989370       2.354880
H        0.763755      -2.876394       3.364387
H       -1.675707      -3.644508      -3.630539
H        2.825129      -3.640395      -3.642461
H       -1.745342      -1.274606      -3.106903
H        2.886143      -1.273272      -3.107821
H       -3.171995      -2.825717      -1.902292
H        0.594469      -6.999978       0.718542
H       -0.573646      -7.317194      -1.386096
H        1.853323      -7.296181      -1.336214
H        4.417262      -2.804299      -2.010804
35

C        2.752439      -1.042199       1.856207
C        1.920354      -0.123982       1.386157
O        0.689475      -1.331752      -0.555487
C        0.689264       0.266050       2.093392
O       -0.415447       0.266676       1.623471
H        1.588972      -2.508050       1.438911
H        2.622086      -1.483911       2.831518
H        3.662318      -1.288225       1.333456
H        2.137066       0.404680       0.468999
H        0.851065       0.559899       3.151639
H       -0.150275      -0.873669      -0.494581
Sn       0.520762      -3.192471      -1.045031
O        0.753266      -5.133655      -1.034501
O        0.980164      -3.236949       1.239735
O       -1.328950      -3.130162      -1.202847
O        2.585317      -3.065818      -1.093775
O        0.900394      -2.677135      -2.939199
H        3.238522      -3.402865      -0.479797
H        0.590324      -3.189040      -3.685121
Si      -0.101833      -3.559631       2.426965
Si      -1.968058      -2.650887      -2.611655
Si       0.631091      -6.713470      -0.741810
Si       3.096679      -2.637645      -2.649968
H       -0.082093      -4.993213       2.530076
H       -1.441798      -2.989370       2.354880
H        0.763755      -2.876394       3.364387
H       -1.675707      -3.644508      -3.630539
H        2.825129      -3.640395      -3.642461
H       -1.745342      -1.274606      -3.106903
H        2.886143      -1.273272      -3.107821
H       -3.171995      -2.825717      -1.902292
H        0.594469      -6.999978       0.718542
H       -0.573646      -7.317194      -1.386096
H        1.853323      -7.296181      -1.336214
H        4.417262      -2.804299      -2.010804
35

C        2.841535      -1.089993       1.829849
C        1.957905      -0.177873       1.441106
O        0.696317      -1.320825      -0.515020
C        0.741576       0.129036       2.213865
O       -0.377085       0.114744       1.780492
H        1.598583      -2.549653       1.430634
H        2.776819      -1.597466       2.776742
H        3.707627      -1.296147       1.225155
H        2.114858       0.396675       0.531380
H        0.936401       0.376977       3.283361
H       -0.140517      -0.871442      -0.413696
Sn       0.515968      -3.172123      -1.045444
O        0.726431      -5.119907      -1.050121
O        0.991957      -3.278534       1.247991
O       -1.332874      -3.098837      -1.183258
O        2.586754      -3.066058      -1.093000
O        0.919086      -2.643054      -2.929452
H        3.235770      -3.426495      -0.491280
H        0.589828      -3.152521      -3.666126
Si      -0.104845      -3.556689       2.427483
Si      -1.969004      -2.646544      -2.608592
Si       0.631154      -6.703870      -0.745934
Si       3.089585      -2.638188      -2.647148
H       -0.082093      -4.993213       2.530076
H       -1.441798      -2.989370       2.354880
H        0.763755      -2.876394       3.364387
H       -1.675707      -3.644508      -3.630539
H        2.825129      -3.640395      -3.642461
H       -1.745342      -1.274606      -3.106903
H        2.886143      -1.273272      -3.107821
H       -3.171995      -2.825717      -1.902292
H        0.594469      -6.999978       0.718542
H       -0.573646      -7.317194      -1.386096
H        1.853323      -7.296181      -1.336214
H        4.417262      -2.804299      -2.010804
35

C        2.857826      -1.138101       1.782696
C        1.974325      -0.211587       1.407312
O        0.705840      -1.312731      -0.501746
C        0.770953       0.106633       2.199679
O       -0.355433       0.097875       1.784700
H        1.629710      -2.542655       1.406805
H        2.795762      -1.647376       2.731687
H        3.723367      -1.347093       1.178044
H        2.116082       0.347027       0.492508
H        0.981491       0.361152       3.261909
H       -0.136817      -0.867097      -0.388838
Sn       0.523615      -3.179765      -1.038003
O        0.728822      -5.129649      -1.037247
O        0.995306      -3.284009       1.220025
O       -1.322455      -3.097867      -1.179645
O        2.593226      -3.080077      -1.081859
O        0.917859      -2.658476      -2.925967
H        3.240405      -3.435363      -0.475333
H        0.601009      -3.167089      -3.672912
Si      -0.094512      -3.553536       2.411941
Si      -1.962825      -2.640964      -2.596253
Si       0.627605      -6.712323      -0.743174
Si       3.096219      -2.637174      -2.637172
H       -0.082093      -4.993213       2.530076
H       -1.441798      -2.989370       2.354880
H        0.763755      -2.876394       3.364387
H       -1.675707      -3.644508      -3.630539
H        2.825129      -3.640395      -3.642461
H       -1.745342      -1.274606      -3.106903
H        2.886143      -1.273272      -3.107821
H       -3.171995      -2.825717      -1.902292
H        0.594469      -6.999978       0.718542
H       -0.573646      -7.317194      -1.386096
H        1.853323      -7.296181      -1.336214
H        4.417262      -2.804299      -2.010804
35

C        2.909584      -0.983268       1.847115
C        1.941933      -0.134321       1.538646
O        0.683678      -1.344309      -0.530123
C        0.706924      -0.010952       2.330773
O       -0.408479      -0.092331       1.895829
H        1.587863      -2.594026       1.338207
H        2.873573      -1.605746       2.726036
H        3.784517      -1.074498       1.224988
H        2.007976       0.484659       0.653667
H        0.880956       0.149479       3.417333
H       -0.153166      -0.910810      -0.341696
Sn       0.515292      -3.183035      -1.087111
O        0.749096      -5.135974      -1.077152
O        0.984931      -3.332258       1.219513
O       -1.336570      -3.135763      -1.191542
O        2.580537      -3.084216      -1.098126
O        0.899309      -2.684193      -2.962511
H        3.219353      -3.495533      -0.509696
H        0.590743      -3.231219      -3.686178
Si      -0.102348      -3.561324       2.429098
Si      -1.965992      -2.649332      -2.606973
Si       0.629892      -6.708470      -0.744638
Si       3.098521      -2.637609      -2.645867
H       -0.082093      -4.993213       2.530076
H       -1.441798      -2.989370       2.354880
H        0.763755      -2.876394       3.364387
H       -1.675707      -3.644508      -3.630539
H        2.825129      -3.640395      -3.642461
H       -1.745342      -1.274606      -3.106903
H        2.886143      -1.273272      -3.107821
H       -3.171995      -2.825717      -1.902292
H        0.594469      -6.999978       0.718542
H       -0.573646      -7.317194      -1.386096
H        1.853323      -7.296181      -1.336214
H        4.417262      -2.804299      -2.010804
35

C        2.775048      -0.364334       1.811494
C        1.667409       0.275733       1.478971
O        0.703215      -1.349679      -0.518252
C        0.405546       0.171569       2.235338
O       -0.645753      -0.209952       1.793944
H        1.586307      -2.631309       1.280846
H        2.837600      -1.011706       2.671560
H        3.666980      -0.275649       1.211179
H        1.633796       0.903424       0.599035
H        0.485268       0.492208       3.297399
H       -0.131324      -0.955166      -0.249487
Sn       0.507850      -3.177374      -1.107223
O        0.743585      -5.135973      -1.076904
O        0.972714      -3.357239       1.203061
O       -1.338199      -3.127181      -1.191100
O        2.590656      -3.104552      -1.104610
O        0.889386      -2.683468      -2.978517
H        3.204337      -3.559745      -0.526302
H        0.566981      -3.232268      -3.696280
Si      -0.101704      -3.564226       2.427706
Si      -1.966524      -2.646313      -2.605243
Si       0.622095      -6.709106      -0.746199
Si       3.108492      -2.641010      -2.648777
H       -0.082093      -4.993213       2.530076
H       -1.441798      -2.989370       2.354880
H        0.763755      -2.876394       3.364387
H       -1.675707      -3.644508      -3.630539
H        2.825129      -3.640395      -3.642461
H       -1.745342      -1.274606      -3.106903
H        2.886143      -1.273272      -3.107821
H       -3.171995      -2.825717      -1.902292
H        0.594469      -6.999978       0.718542
H       -0.573646      -7.317194      -1.386096
H        1.853323      -7.296181      -1.336214
H        4.417262      -2.804299      -2.010804
35

C        2.578344       0.726494       0.897384
C        1.348551       1.125129       0.644839
O        0.765757      -1.350907      -0.618120
C        0.218579       1.023373       1.593353
O       -0.594167       0.138752       1.603775
H        1.591881      -2.613434       1.330156
H        2.852659       0.303257       1.855847
H        3.353800       0.774677       0.156498
H        1.076128       1.566662      -0.297773
H        0.147369       1.859320       2.312493
H        0.010780      -0.884052      -0.249265
Sn       0.525089      -3.165668      -1.169869
O        0.766174      -5.131583      -1.068918
O        0.911896      -3.274914       1.167576
O       -1.321525      -3.167862      -1.196659
O        2.587017      -3.159826      -1.141826
O        0.864706      -2.656278      -3.033582
H        3.198532      -3.622526      -0.561297
H        0.454925      -3.115594      -3.772480
Si      -0.106647      -3.553566       2.423064
Si      -1.968905      -2.657753      -2.595572
Si       0.623852      -6.700956      -0.751343
Si       3.117976      -2.636083      -2.662964
H       -0.082093      -4.993213       2.530076
H       -1.441798      -2.989370       2.354880
H        0.763755      -2.876394       3.364387
H       -1.675707      -3.644508      -3.630539
H        2.825129      -3.640395      -3.642461
H       -1.745342      -1.274606      -3.106903
H        2.886143      -1.273272      -3.107821
H       -3.171995      -2.825717      -1.902292
H        0.594469      -6.999978       0.718542
H       -0.573646      -7.317194      -1.386096
H        1.853323      -7.296181      -1.336214
H        4.417262      -2.804299      -2.010804
[GEOCONV]
energy
0.0
6.388376508526562
22.951076747805928
41.70274113366759
65.50419677767786
51.89461793027294
51.212703302211594
51.522272707356024
48.929679334833054
48.954124733609206
52.917510895917076
max-force
0.0
0.009478029848552448
0.009105486458335754
0.007300571021113099
0.0006090294036756759
0.002502199446665883
0.0031083139142766996
0.0033156355735052883
0.002061763293837839
0.0014386086293435964
0.007994599871659853
max-step
1000.0
1000.0
1000.0
1000.0
1000.0
1000.0
1000.0
1000.0
1000.0
1000.0
1000.0
