[Molden Format]
[Geometries] (XYZ)
35

C        2.171975      -0.115727       0.908331
C        0.776561       0.267913       0.431064
O        0.309334      -0.604106      -0.561027
C       -0.204452       0.289100       1.578794
O       -1.282078      -0.233491       1.512497
H        2.133566      -1.110169       1.341397
H        2.526832       0.595658       1.648125
H        2.845976      -0.125994       0.057404
H        0.807346       1.293510       0.017577
H        0.135818       0.831600       2.477625
H       -0.632511      -0.753598      -0.369290
Sn       0.567360      -3.332966      -0.800497
O        0.750469      -5.192874      -1.129062
O        0.763286      -3.119235       1.082353
O       -1.230851      -2.944397      -1.147984
O        2.580572      -2.826661      -0.943997
O        1.026874      -2.612787      -2.695027
H        3.262085      -3.012539      -0.294883
H        0.636776      -3.037736      -3.461179
Si      -0.095298      -3.540242       2.387065
Si      -1.938836      -2.636291      -2.580763
Si       0.628507      -6.761477      -0.737922
Si       3.039240      -2.632330      -2.598778
H       -0.082093      -4.993213       2.530076
H       -1.441798      -2.989370       2.354880
H        0.763755      -2.876394       3.364387
H       -1.675707      -3.644508      -3.630539
H        2.825129      -3.640395      -3.642461
H       -1.745342      -1.274606      -3.106903
H        2.886143      -1.273272      -3.107821
H       -3.171995      -2.825717      -1.902292
H        0.594469      -6.999978       0.718542
H       -0.573646      -7.317194      -1.386096
H        1.853323      -7.296181      -1.336214
H        4.417262      -2.804299      -2.010804
35

C        2.208735      -0.269557       1.055341
C        0.843448       0.199680       0.541932
O        0.355161      -0.743517      -0.565608
C       -0.201520       0.196890       1.627298
O       -1.286765      -0.298807       1.513789
H        2.069156      -1.397836       1.458869
H        2.590611       0.364746       1.849611
H        2.912358      -0.295231       0.229158
H        0.895959       1.220362       0.128077
H        0.108408       0.714624       2.552034
H       -0.595725      -0.834528      -0.382161
Sn       0.567342      -3.314845      -0.804901
O        0.735132      -5.188414      -1.132950
O        0.781563      -3.128058       1.091126
O       -1.243378      -2.954285      -1.146148
O        2.583584      -2.829502      -0.940506
O        1.027649      -2.597385      -2.706515
H        3.267843      -3.026184      -0.298374
H        0.635881      -3.016791      -3.473147
Si      -0.103195      -3.580901       2.369036
Si      -1.947376      -2.657257      -2.582403
Si       0.618371      -6.762676      -0.750628
Si       3.040365      -2.644572      -2.594379
H       -0.082093      -4.993213       2.530076
H       -1.441798      -2.989370       2.354880
H        0.763755      -2.876394       3.364387
H       -1.675707      -3.644508      -3.630539
H        2.825129      -3.640395      -3.642461
H       -1.745342      -1.274606      -3.106903
H        2.886143      -1.273272      -3.107821
H       -3.171995      -2.825717      -1.902292
H        0.594469      -6.999978       0.718542
H       -0.573646      -7.317194      -1.386096
H        1.853323      -7.296181      -1.336214
H        4.417262      -2.804299      -2.010804
35

C        2.246668      -0.430612       1.222165
C        0.943288       0.129189       0.691051
O        0.420655      -0.942035      -0.588403
C       -0.166506       0.106301       1.701114
O       -1.255128      -0.363273       1.534964
H        1.922128      -1.769310       1.547425
H        2.654535       0.086189       2.084360
H        2.981102      -0.476148       0.424341
H        1.014755       1.139763       0.271632
H        0.104441       0.600443       2.651806
H       -0.534813      -0.956409      -0.411357
Sn       0.575785      -3.271047      -0.813694
O        0.725799      -5.168567      -1.127755
O        0.817144      -3.115657       1.120285
O       -1.252484      -2.942591      -1.141455
O        2.594711      -2.819729      -0.940338
O        1.030498      -2.566487      -2.728604
H        3.282610      -3.029619      -0.307673
H        0.636243      -2.980774      -3.494794
Si      -0.105112      -3.600936       2.362772
Si      -1.951587      -2.657758      -2.580838
Si       0.615126      -6.747993      -0.749144
Si       3.045564      -2.648817      -2.593871
H       -0.082093      -4.993213       2.530076
H       -1.441798      -2.989370       2.354880
H        0.763755      -2.876394       3.364387
H       -1.675707      -3.644508      -3.630539
H        2.825129      -3.640395      -3.642461
H       -1.745342      -1.274606      -3.106903
H        2.886143      -1.273272      -3.107821
H       -3.171995      -2.825717      -1.902292
H        0.594469      -6.999978       0.718542
H       -0.573646      -7.317194      -1.386096
H        1.853323      -7.296181      -1.336214
H        4.417262      -2.804299      -2.010804
35

C        2.298685      -0.832068       1.351837
C        1.156183      -0.121370       0.798942
O        0.630898      -1.076345      -0.538114
C        0.001085      -0.069764       1.737870
O       -1.103319      -0.494467       1.504943
H        1.690413      -2.090758       1.426085
H        2.628140      -0.660829       2.369493
H        3.090994      -0.939285       0.642835
H        1.242610       0.801599       0.239503
H        0.235034       0.422095       2.691116
H       -0.278396      -0.833164      -0.364872
Sn       0.592388      -3.212992      -0.865710
O        0.762843      -5.155346      -1.064543
O        0.834884      -3.116316       1.134579
O       -1.258393      -2.945615      -1.163174
O        2.607009      -2.857065      -0.965199
O        1.017832      -2.583263      -2.772289
H        3.292560      -3.112513      -0.345396
H        0.625893      -3.001078      -3.534590
Si      -0.087208      -3.555669       2.399207
Si      -1.949847      -2.649361      -2.595410
Si       0.618737      -6.734654      -0.734834
Si       3.060662      -2.645996      -2.609612
H       -0.082093      -4.993213       2.530076
H       -1.441798      -2.989370       2.354880
H        0.763755      -2.876394       3.364387
H       -1.675707      -3.644508      -3.630539
H        2.825129      -3.640395      -3.642461
H       -1.745342      -1.274606      -3.106903
H        2.886143      -1.273272      -3.107821
H       -3.171995      -2.825717      -1.902292
H        0.594469      -6.999978       0.718542
H       -0.573646      -7.317194      -1.386096
H        1.853323      -7.296181      -1.336214
H        4.417262      -2.804299      -2.010804
35

C        2.365816      -0.778984       1.525510
C        1.318409      -0.035743       1.102389
O        0.616683      -1.169615      -0.575108
C        0.147731      -0.013718       2.012950
O       -0.954283      -0.416839       1.757988
H        1.473622      -2.283265       1.418508
H        2.681880      -0.861249       2.527799
H        3.200168      -0.851416       0.816617
H        1.393768       0.892204       0.545042
H        0.355064       0.427145       3.009802
H       -0.276276      -0.884457      -0.350652
Sn       0.561222      -3.167892      -0.935503
O        0.748555      -5.111901      -1.106303
O        0.835610      -3.080953       1.212811
O       -1.277825      -2.965683      -1.194892
O        2.600346      -2.850731      -0.997943
O        0.983888      -2.540460      -2.858810
H        3.308991      -3.097200      -0.406852
H        0.629092      -2.965299      -3.646272
Si      -0.110996      -3.565958       2.476811
Si      -1.937222      -2.640303      -2.624144
Si       0.634234      -6.691241      -0.769946
Si       3.030376      -2.645055      -2.641860
H       -0.082093      -4.993213       2.530076
H       -1.441798      -2.989370       2.354880
H        0.763755      -2.876394       3.364387
H       -1.675707      -3.644508      -3.630539
H        2.825129      -3.640395      -3.642461
H       -1.745342      -1.274606      -3.106903
H        2.886143      -1.273272      -3.107821
H       -3.171995      -2.825717      -1.902292
H        0.594469      -6.999978       0.718542
H       -0.573646      -7.317194      -1.386096
H        1.853323      -7.296181      -1.336214
H        4.417262      -2.804299      -2.010804
35

C        2.470878      -0.619751       1.561048
C        1.391368       0.092798       1.124833
O        0.654888      -1.185486      -0.566848
C        0.244839       0.094575       2.080568
O       -0.845283      -0.346006       1.833878
H        1.489108      -2.351724       1.458801
H        2.824445      -0.711819       2.561517
H        3.279062      -0.697666       0.821538
H        1.433657       1.007078       0.551779
H        0.443445       0.587536       3.062117
H       -0.241829      -0.904272      -0.351617
Sn       0.578781      -3.165267      -0.946696
O        0.755637      -5.117293      -1.091882
O        0.863387      -3.071755       1.215886
O       -1.280211      -2.964593      -1.191522
O        2.627972      -2.849476      -0.999630
O        1.013601      -2.541001      -2.866628
H        3.329567      -3.102899      -0.394347
H        0.647964      -2.959459      -3.647065
Si      -0.114009      -3.556237       2.461481
Si      -1.961709      -2.627333      -2.609064
Si       0.626206      -6.691341      -0.742912
Si       3.069967      -2.626458      -2.637812
H       -0.082093      -4.993213       2.530076
H       -1.441798      -2.989370       2.354880
H        0.763755      -2.876394       3.364387
H       -1.675707      -3.644508      -3.630539
H        2.825129      -3.640395      -3.642461
H       -1.745342      -1.274606      -3.106903
H        2.886143      -1.273272      -3.107821
H       -3.171995      -2.825717      -1.902292
H        0.594469      -6.999978       0.718542
H       -0.573646      -7.317194      -1.386096
H        1.853323      -7.296181      -1.336214
H        4.417262      -2.804299      -2.010804
35

C        2.536186      -0.551462       1.545778
C        1.443314       0.151635       1.210614
O        0.646813      -1.234548      -0.585086
C        0.305852       0.161912       2.166739
O       -0.773154      -0.332379       1.973250
H        1.458129      -2.354754       1.406076
H        2.867919      -0.774108       2.542985
H        3.307663      -0.610760       0.795956
H        1.451674       1.008440       0.568239
H        0.516525       0.674193       3.126516
H       -0.237855      -0.943808      -0.356032
Sn       0.568525      -3.159532      -0.981483
O        0.744232      -5.122444      -1.082573
O        0.832494      -3.089665       1.200954
O       -1.288603      -3.023779      -1.176954
O        2.616163      -2.895434      -1.008805
O        1.009095      -2.570033      -2.886871
H        3.309440      -3.169399      -0.406963
H        0.653487      -2.983776      -3.676319
Si      -0.113322      -3.554884       2.459542
Si      -1.957439      -2.642367      -2.600392
Si       0.627007      -6.695731      -0.748415
Si       3.072036      -2.637601      -2.639864
H       -0.082093      -4.993213       2.530076
H       -1.441798      -2.989370       2.354880
H        0.763755      -2.876394       3.364387
H       -1.675707      -3.644508      -3.630539
H        2.825129      -3.640395      -3.642461
H       -1.745342      -1.274606      -3.106903
H        2.886143      -1.273272      -3.107821
H       -3.171995      -2.825717      -1.902292
H        0.594469      -6.999978       0.718542
H       -0.573646      -7.317194      -1.386096
H        1.853323      -7.296181      -1.336214
H        4.417262      -2.804299      -2.010804
35

C        2.604727       0.073438       1.465479
C        1.447529       0.693113       1.101412
O        0.709287      -1.209705      -0.591998
C        0.338318       0.714541       2.095763
O       -0.688211       0.111491       1.969722
H        1.491006      -2.250377       1.419755
H        2.997875      -0.031061       2.452185
H        3.363955       0.000249       0.685595
H        1.385456       1.527792       0.424281
H        0.522603       1.359708       2.986162
H       -0.135836      -0.841183      -0.332449
Sn       0.610778      -3.081242      -0.997006
O        0.783925      -5.057971      -1.058589
O        0.843627      -3.013441       1.182361
O       -1.268124      -2.980029      -1.145747
O        2.648543      -2.863920      -1.002922
O        1.010777      -2.531992      -2.929866
H        3.336768      -3.158878      -0.403344
H        0.630814      -2.964810      -3.702449
Si      -0.110138      -3.475898       2.451208
Si      -1.958576      -2.629445      -2.565252
Si       0.635385      -6.636303      -0.729834
Si       3.090541      -2.605302      -2.640688
H       -0.082093      -4.993213       2.530076
H       -1.441798      -2.989370       2.354880
H        0.763755      -2.876394       3.364387
H       -1.675707      -3.644508      -3.630539
H        2.825129      -3.640395      -3.642461
H       -1.745342      -1.274606      -3.106903
H        2.886143      -1.273272      -3.107821
H       -3.171995      -2.825717      -1.902292
H        0.594469      -6.999978       0.718542
H       -0.573646      -7.317194      -1.386096
H        1.853323      -7.296181      -1.336214
H        4.417262      -2.804299      -2.010804
35

C        2.649945       0.315689       1.342160
C        1.465911       0.889451       1.022596
O        0.742161      -1.280946      -0.594318
C        0.359867       0.913492       2.016575
O       -0.620194       0.223111       1.952444
H        1.509386      -2.343678       1.392257
H        3.008903       0.110741       2.335612
H        3.405310       0.256069       0.564884
H        1.339157       1.628152       0.249754
H        0.493827       1.646415       2.842214
H       -0.069286      -0.865570      -0.298973
Sn       0.596248      -3.101909      -1.036543
O        0.782482      -5.079754      -1.042017
O        0.848173      -3.099290       1.176589
O       -1.278340      -3.038350      -1.139120
O        2.637844      -2.952836      -1.028453
O        0.979976      -2.554488      -2.954386
H        3.304138      -3.300265      -0.432392
H        0.592221      -2.985226      -3.722995
Si      -0.120034      -3.537971       2.437273
Si      -1.961253      -2.632066      -2.549591
Si       0.626400      -6.658546      -0.728106
Si       3.100731      -2.609152      -2.640581
H       -0.082093      -4.993213       2.530076
H       -1.441798      -2.989370       2.354880
H        0.763755      -2.876394       3.364387
H       -1.675707      -3.644508      -3.630539
H        2.825129      -3.640395      -3.642461
H       -1.745342      -1.274606      -3.106903
H        2.886143      -1.273272      -3.107821
H       -3.171995      -2.825717      -1.902292
H        0.594469      -6.999978       0.718542
H       -0.573646      -7.317194      -1.386096
H        1.853323      -7.296181      -1.336214
H        4.417262      -2.804299      -2.010804
35

C        2.635603       0.482894       1.162302
C        1.426180       0.987684       0.869033
O        0.756892      -1.316817      -0.603613
C        0.300474       0.964847       1.836208
O       -0.614377       0.187042       1.797990
H        1.552305      -2.441504       1.360864
H        2.946911       0.180088       2.149789
H        3.406230       0.467049       0.404033
H        1.233252       1.607198       0.009133
H        0.347000       1.752748       2.616670
H       -0.029565      -0.877761      -0.273398
Sn       0.566944      -3.126091      -1.092695
O        0.777760      -5.099739      -1.046924
O        0.875929      -3.164227       1.163117
O       -1.298887      -3.096629      -1.159701
O        2.615190      -3.040622      -1.078811
O        0.931537      -2.597288      -2.991977
H        3.260727      -3.438424      -0.489673
H        0.533500      -3.042276      -3.746639
Si      -0.120449      -3.535587       2.419542
Si      -1.966737      -2.647776      -2.566527
Si       0.627403      -6.675123      -0.731044
Si       3.102725      -2.615693      -2.658288
H       -0.082093      -4.993213       2.530076
H       -1.441798      -2.989370       2.354880
H        0.763755      -2.876394       3.364387
H       -1.675707      -3.644508      -3.630539
H        2.825129      -3.640395      -3.642461
H       -1.745342      -1.274606      -3.106903
H        2.886143      -1.273272      -3.107821
H       -3.171995      -2.825717      -1.902292
H        0.594469      -6.999978       0.718542
H       -0.573646      -7.317194      -1.386096
H        1.853323      -7.296181      -1.336214
H        4.417262      -2.804299      -2.010804
35

C        2.578344       0.726494       0.897384
C        1.348551       1.125129       0.644839
O        0.765757      -1.350907      -0.618120
C        0.218579       1.023373       1.593353
O       -0.594167       0.138752       1.603775
H        1.591881      -2.613434       1.330156
H        2.852659       0.303257       1.855847
H        3.353800       0.774677       0.156498
H        1.076128       1.566662      -0.297773
H        0.147369       1.859320       2.312493
H        0.010780      -0.884052      -0.249265
Sn       0.525089      -3.165668      -1.169869
O        0.766174      -5.131583      -1.068918
O        0.911896      -3.274914       1.167576
O       -1.321525      -3.167862      -1.196659
O        2.587017      -3.159826      -1.141826
O        0.864706      -2.656278      -3.033582
H        3.198532      -3.622526      -0.561297
H        0.454925      -3.115594      -3.772480
Si      -0.106647      -3.553566       2.423064
Si      -1.968905      -2.657753      -2.595572
Si       0.623852      -6.700956      -0.751343
Si       3.117976      -2.636083      -2.662964
H       -0.082093      -4.993213       2.530076
H       -1.441798      -2.989370       2.354880
H        0.763755      -2.876394       3.364387
H       -1.675707      -3.644508      -3.630539
H        2.825129      -3.640395      -3.642461
H       -1.745342      -1.274606      -3.106903
H        2.886143      -1.273272      -3.107821
H       -3.171995      -2.825717      -1.902292
H        0.594469      -6.999978       0.718542
H       -0.573646      -7.317194      -1.386096
H        1.853323      -7.296181      -1.336214
H        4.417262      -2.804299      -2.010804
[GEOCONV]
energy
0.0
10.796767709492997
51.75484443761525
60.87080869379133
84.30579361030686
83.32018429829623
72.17966873000114
80.65370044983138
68.96491536909889
59.574923543397745
52.917510895917076
max-force
0.0
0.009478029848552448
0.009105486458335754
0.008816255930335935
0.010537386542040459
0.0059425380562256195
0.0037791823975164497
0.008871247808632346
0.0061752160903568495
0.006860810486551522
0.007994599871659853
max-step
1000.0
1000.0
1000.0
1000.0
1000.0
1000.0
1000.0
1000.0
1000.0
1000.0
1000.0
