[Molden Format]
[Geometries] (XYZ)
35

C        2.171975      -0.115727       0.908331
C        0.776561       0.267913       0.431064
O        0.309334      -0.604106      -0.561027
C       -0.204452       0.289100       1.578794
O       -1.282078      -0.233491       1.512497
H        2.133566      -1.110169       1.341397
H        2.526832       0.595658       1.648125
H        2.845976      -0.125994       0.057404
H        0.807346       1.293510       0.017577
H        0.135818       0.831600       2.477625
H       -0.632511      -0.753598      -0.369290
Sn       0.567360      -3.332966      -0.800497
O        0.750469      -5.192874      -1.129062
O        0.763286      -3.119235       1.082353
O       -1.230851      -2.944397      -1.147984
O        2.580572      -2.826661      -0.943997
O        1.026874      -2.612787      -2.695027
H        3.262085      -3.012539      -0.294883
H        0.636776      -3.037736      -3.461179
Si      -0.095298      -3.540242       2.387065
Si      -1.938836      -2.636291      -2.580763
Si       0.628507      -6.761477      -0.737922
Si       3.039240      -2.632330      -2.598778
H       -0.082093      -4.993213       2.530076
H       -1.441798      -2.989370       2.354880
H        0.763755      -2.876394       3.364387
H       -1.675707      -3.644508      -3.630539
H        2.825129      -3.640395      -3.642461
H       -1.745342      -1.274606      -3.106903
H        2.886143      -1.273272      -3.107821
H       -3.171995      -2.825717      -1.902292
H        0.594469      -6.999978       0.718542
H       -0.573646      -7.317194      -1.386096
H        1.853323      -7.296181      -1.336214
H        4.417262      -2.804299      -2.010804
35

C        2.224747      -0.358047       1.085141
C        0.908800       0.169361       0.565637
O        0.408288      -0.736530      -0.537168
C       -0.151736       0.204727       1.633268
O       -1.247922      -0.269609       1.498028
H        2.010318      -1.447488       1.418652
H        2.595129       0.170271       1.960615
H        2.966360      -0.378458       0.295995
H        0.980696       1.161106       0.094494
H        0.153711       0.715132       2.559936
H       -0.547697      -0.761484      -0.355815
Sn       0.563665      -3.299956      -0.820239
O        0.744279      -5.181871      -1.114724
O        0.790952      -3.119664       1.103005
O       -1.250150      -2.962082      -1.151519
O        2.585640      -2.844106      -0.956243
O        1.013924      -2.605980      -2.717887
H        3.268492      -3.051400      -0.315689
H        0.628705      -3.030165      -3.485889
Si      -0.096616      -3.561016       2.383856
Si      -1.945282      -2.652480      -2.589282
Si       0.619842      -6.754422      -0.747335
Si       3.047135      -2.641397      -2.602885
H       -0.082093      -4.993213       2.530076
H       -1.441798      -2.989370       2.354880
H        0.763755      -2.876394       3.364387
H       -1.675707      -3.644508      -3.630539
H        2.825129      -3.640395      -3.642461
H       -1.745342      -1.274606      -3.106903
H        2.886143      -1.273272      -3.107821
H       -3.171995      -2.825717      -1.902292
H        0.594469      -6.999978       0.718542
H       -0.573646      -7.317194      -1.386096
H        1.853323      -7.296181      -1.336214
H        4.417262      -2.804299      -2.010804
35

C        2.247986      -0.694179       1.283122
C        1.072228      -0.003574       0.730651
O        0.519254      -0.944664      -0.536699
C       -0.071589       0.071987       1.693927
O       -1.187722      -0.326495       1.473669
H        1.777282      -1.876273       1.440428
H        2.566229      -0.413837       2.283938
H        3.063969      -0.748442       0.579690
H        1.209023       0.940745       0.202075
H        0.193554       0.540223       2.650137
H       -0.430314      -0.812989      -0.367343
Sn       0.564064      -3.240212      -0.847760
O        0.744497      -5.154242      -1.092558
O        0.836753      -3.086974       1.141091
O       -1.267273      -2.962661      -1.157530
O        2.594985      -2.846278      -0.973426
O        0.998912      -2.586809      -2.748170
H        3.276539      -3.076810      -0.340413
H        0.619010      -3.013544      -3.515929
Si      -0.083765      -3.538475       2.398362
Si      -1.948606      -2.651191      -2.599981
Si       0.619240      -6.728902      -0.747237
Si       3.063303      -2.639662      -2.608058
H       -0.082093      -4.993213       2.530076
H       -1.441798      -2.989370       2.354880
H        0.763755      -2.876394       3.364387
H       -1.675707      -3.644508      -3.630539
H        2.825129      -3.640395      -3.642461
H       -1.745342      -1.274606      -3.106903
H        2.886143      -1.273272      -3.107821
H       -3.171995      -2.825717      -1.902292
H        0.594469      -6.999978       0.718542
H       -0.573646      -7.317194      -1.386096
H        1.853323      -7.296181      -1.336214
H        4.417262      -2.804299      -2.010804
35

C        2.236785      -0.899048       1.403644
C        1.282141      -0.067705       0.658533
O        0.667483      -0.980384      -0.523439
C        0.092942       0.392912       1.432147
O       -1.038033       0.243244       1.077506
H        1.663745      -1.923119       1.364119
H        2.208254      -0.833262       2.482731
H        3.218708      -1.011937       0.962948
H        1.646055       0.623219      -0.108051
H        0.335010       0.888691       2.394664
H       -0.263640      -0.662214      -0.460874
Sn       0.533524      -3.234962      -0.881568
O        0.772243      -5.146448      -1.041162
O        0.833110      -3.132751       1.128848
O       -1.305943      -3.047398      -1.155448
O        2.585429      -2.925964      -1.011601
O        0.951367      -2.658933      -2.779087
H        3.235829      -3.200511      -0.355832
H        0.580325      -3.113930      -3.540315
Si      -0.083346      -3.556612       2.381657
Si      -1.960262      -2.638076      -2.593173
Si       0.623130      -6.726510      -0.732074
Si       3.080689      -2.643708      -2.624522
H       -0.082093      -4.993213       2.530076
H       -1.441798      -2.989370       2.354880
H        0.763755      -2.876394       3.364387
H       -1.675707      -3.644508      -3.630539
H        2.825129      -3.640395      -3.642461
H       -1.745342      -1.274606      -3.106903
H        2.886143      -1.273272      -3.107821
H       -3.171995      -2.825717      -1.902292
H        0.594469      -6.999978       0.718542
H       -0.573646      -7.317194      -1.386096
H        1.853323      -7.296181      -1.336214
H        4.417262      -2.804299      -2.010804
35

C        2.330478      -1.010981       1.632124
C        1.487783      -0.145621       0.970867
O        0.644466      -1.171275      -0.572027
C        0.251528       0.316205       1.651603
O       -0.870487       0.214632       1.246027
H        1.546492      -2.178732       1.396417
H        2.215603      -1.173266       2.693325
H        3.306593      -1.201319       1.217953
H        1.826699       0.478035       0.155297
H        0.461680       0.802240       2.627311
H       -0.234606      -0.783771      -0.516187
Sn       0.532702      -3.208344      -0.949289
O        0.762463      -5.142395      -1.053809
O        0.888892      -3.132102       1.180932
O       -1.314406      -3.063379      -1.170210
O        2.590439      -2.961513      -1.036117
O        0.955680      -2.652426      -2.856481
H        3.255030      -3.253699      -0.410612
H        0.606088      -3.119527      -3.615823
Si      -0.095631      -3.551769       2.406956
Si      -1.957434      -2.643026      -2.598510
Si       0.626588      -6.722208      -0.741147
Si       3.077393      -2.636664      -2.633325
H       -0.082093      -4.993213       2.530076
H       -1.441798      -2.989370       2.354880
H        0.763755      -2.876394       3.364387
H       -1.675707      -3.644508      -3.630539
H        2.825129      -3.640395      -3.642461
H       -1.745342      -1.274606      -3.106903
H        2.886143      -1.273272      -3.107821
H       -3.171995      -2.825717      -1.902292
H        0.594469      -6.999978       0.718542
H       -0.573646      -7.317194      -1.386096
H        1.853323      -7.296181      -1.336214
H        4.417262      -2.804299      -2.010804
35

C        2.684063      -0.898709       1.803529
C        1.735899      -0.073961       1.377996
O        0.650549      -1.325040      -0.565636
C        0.500389       0.214948       2.136329
O       -0.618869      -0.010465       1.756607
H        1.530829      -2.433631       1.420224
H        2.646523      -1.364105       2.774853
H        3.588352      -1.044318       1.232292
H        1.875783       0.516771       0.485964
H        0.678674       0.674210       3.128511
H       -0.216150      -0.936650      -0.411742
Sn       0.515023      -3.217610      -1.022923
O        0.779265      -5.144004      -1.020542
O        0.952790      -3.203205       1.228071
O       -1.334386      -3.099435      -1.199463
O        2.586603      -3.001765      -1.078893
O        0.924281      -2.694488      -2.923776
H        3.245330      -3.327449      -0.464530
H        0.586477      -3.147062      -3.699457
Si      -0.100273      -3.554233       2.440221
Si      -1.970617      -2.640994      -2.615932
Si       0.626566      -6.722518      -0.746643
Si       3.093969      -2.637059      -2.649410
H       -0.082093      -4.993213       2.530076
H       -1.441798      -2.989370       2.354880
H        0.763755      -2.876394       3.364387
H       -1.675707      -3.644508      -3.630539
H        2.825129      -3.640395      -3.642461
H       -1.745342      -1.274606      -3.106903
H        2.886143      -1.273272      -3.107821
H       -3.171995      -2.825717      -1.902292
H        0.594469      -6.999978       0.718542
H       -0.573646      -7.317194      -1.386096
H        1.853323      -7.296181      -1.336214
H        4.417262      -2.804299      -2.010804
35

C        2.719942      -0.931391       1.774484
C        1.715078      -0.118373       1.496206
O        0.629753      -1.334608      -0.553532
C        0.509459       0.040134       2.335831
O       -0.602193      -0.287019       2.036576
H        1.552666      -2.487578       1.400534
H        2.761077      -1.499930       2.690649
H        3.586735      -0.989616       1.137476
H        1.759835       0.551479       0.646614
H        0.709617       0.527578       3.317671
H       -0.233990      -0.965587      -0.367070
Sn       0.514546      -3.220362      -1.034753
O        0.784700      -5.141352      -1.043257
O        0.967848      -3.229861       1.233237
O       -1.343740      -3.118863      -1.206013
O        2.585790      -2.992899      -1.078411
O        0.922493      -2.681376      -2.921846
H        3.244777      -3.325749      -0.468370
H        0.575842      -3.121592      -3.700823
Si      -0.106839      -3.552843       2.435412
Si      -1.974945      -2.648930      -2.620853
Si       0.628266      -6.712491      -0.742346
Si       3.092261      -2.634143      -2.651495
H       -0.082093      -4.993213       2.530076
H       -1.441798      -2.989370       2.354880
H        0.763755      -2.876394       3.364387
H       -1.675707      -3.644508      -3.630539
H        2.825129      -3.640395      -3.642461
H       -1.745342      -1.274606      -3.106903
H        2.886143      -1.273272      -3.107821
H       -3.171995      -2.825717      -1.902292
H        0.594469      -6.999978       0.718542
H       -0.573646      -7.317194      -1.386096
H        1.853323      -7.296181      -1.336214
H        4.417262      -2.804299      -2.010804
35

C        2.835315      -0.855717       1.815581
C        1.811578      -0.045270       1.557868
O        0.673713      -1.345726      -0.547429
C        0.593589       0.075392       2.378758
O       -0.514582      -0.223387       2.013388
H        1.574243      -2.558829       1.369584
H        2.868896      -1.469443       2.704767
H        3.698808      -0.886550       1.178767
H        1.832405       0.579675       0.672722
H        0.763020       0.487320       3.395984
H       -0.172172      -0.952474      -0.318146
Sn       0.518429      -3.205986      -1.064293
O        0.772498      -5.142339      -1.032944
O        0.974214      -3.302570       1.216607
O       -1.331971      -3.124810      -1.196147
O        2.590451      -3.046219      -1.085492
O        0.908472      -2.693720      -2.940532
H        3.230937      -3.425402      -0.483087
H        0.575612      -3.157564      -3.707273
Si      -0.103255      -3.561890       2.429408
Si      -1.968445      -2.644731      -2.607483
Si       0.625158      -6.719572      -0.746389
Si       3.103521      -2.636063      -2.642642
H       -0.082093      -4.993213       2.530076
H       -1.441798      -2.989370       2.354880
H        0.763755      -2.876394       3.364387
H       -1.675707      -3.644508      -3.630539
H        2.825129      -3.640395      -3.642461
H       -1.745342      -1.274606      -3.106903
H        2.886143      -1.273272      -3.107821
H       -3.171995      -2.825717      -1.902292
H        0.594469      -6.999978       0.718542
H       -0.573646      -7.317194      -1.386096
H        1.853323      -7.296181      -1.336214
H        4.417262      -2.804299      -2.010804
35

C        2.815193      -0.591584       1.775868
C        1.740836       0.144718       1.535920
O        0.683278      -1.338878      -0.568437
C        0.511079       0.142970       2.353723
O       -0.552690      -0.292024       2.001257
H        1.583340      -2.589188       1.343201
H        2.882510      -1.241762       2.634066
H        3.670927      -0.562126       1.127245
H        1.701173       0.788574       0.663915
H        0.632012       0.607419       3.356412
H       -0.148168      -0.956711      -0.278602
Sn       0.512109      -3.195471      -1.092633
O        0.764482      -5.135203      -1.043073
O        0.963258      -3.310724       1.201225
O       -1.335914      -3.136779      -1.197808
O        2.587183      -3.068185      -1.095627
O        0.905636      -2.682810      -2.963289
H        3.216740      -3.487109      -0.507432
H        0.559364      -3.149190      -3.724036
Si      -0.101219      -3.558356       2.426634
Si      -1.967733      -2.645212      -2.607567
Si       0.626161      -6.712242      -0.745236
Si       3.106437      -2.635927      -2.647030
H       -0.082093      -4.993213       2.530076
H       -1.441798      -2.989370       2.354880
H        0.763755      -2.876394       3.364387
H       -1.675707      -3.644508      -3.630539
H        2.825129      -3.640395      -3.642461
H       -1.745342      -1.274606      -3.106903
H        2.886143      -1.273272      -3.107821
H       -3.171995      -2.825717      -1.902292
H        0.594469      -6.999978       0.718542
H       -0.573646      -7.317194      -1.386096
H        1.853323      -7.296181      -1.336214
H        4.417262      -2.804299      -2.010804
35

C        2.732243       0.079005       1.458698
C        1.548861       0.618691       1.224047
O        0.716885      -1.341265      -0.579692
C        0.363029       0.476011       2.093177
O       -0.581879      -0.230784       1.861402
H        1.596171      -2.615651       1.327388
H        2.926968      -0.498970       2.347486
H        3.549241       0.186009       0.766969
H        1.372437       1.194123       0.323917
H        0.393593       1.099270       3.012410
H       -0.090588      -0.967549      -0.220890
Sn       0.513730      -3.184943      -1.120444
O        0.749142      -5.135806      -1.053448
O        0.946330      -3.306603       1.187403
O       -1.336302      -3.138653      -1.194185
O        2.591948      -3.121552      -1.107407
O        0.896836      -2.688628      -2.990988
H        3.213614      -3.562841      -0.526706
H        0.548106      -3.174040      -3.738414
Si      -0.101412      -3.555544       2.427196
Si      -1.964529      -2.648332      -2.607001
Si       0.624623      -6.710479      -0.748015
Si       3.107948      -2.640911      -2.648837
H       -0.082093      -4.993213       2.530076
H       -1.441798      -2.989370       2.354880
H        0.763755      -2.876394       3.364387
H       -1.675707      -3.644508      -3.630539
H        2.825129      -3.640395      -3.642461
H       -1.745342      -1.274606      -3.106903
H        2.886143      -1.273272      -3.107821
H       -3.171995      -2.825717      -1.902292
H        0.594469      -6.999978       0.718542
H       -0.573646      -7.317194      -1.386096
H        1.853323      -7.296181      -1.336214
H        4.417262      -2.804299      -2.010804
35

C        2.578344       0.726494       0.897384
C        1.348551       1.125129       0.644839
O        0.765757      -1.350907      -0.618120
C        0.218579       1.023373       1.593353
O       -0.594167       0.138752       1.603775
H        1.591881      -2.613434       1.330156
H        2.852659       0.303257       1.855847
H        3.353800       0.774677       0.156498
H        1.076128       1.566662      -0.297773
H        0.147369       1.859320       2.312493
H        0.010780      -0.884052      -0.249265
Sn       0.525089      -3.165668      -1.169869
O        0.766174      -5.131583      -1.068918
O        0.911896      -3.274914       1.167576
O       -1.321525      -3.167862      -1.196659
O        2.587017      -3.159826      -1.141826
O        0.864706      -2.656278      -3.033582
H        3.198532      -3.622526      -0.561297
H        0.454925      -3.115594      -3.772480
Si      -0.106647      -3.553566       2.423064
Si      -1.968905      -2.657753      -2.595572
Si       0.623852      -6.700956      -0.751343
Si       3.117976      -2.636083      -2.662964
H       -0.082093      -4.993213       2.530076
H       -1.441798      -2.989370       2.354880
H        0.763755      -2.876394       3.364387
H       -1.675707      -3.644508      -3.630539
H        2.825129      -3.640395      -3.642461
H       -1.745342      -1.274606      -3.106903
H        2.886143      -1.273272      -3.107821
H       -3.171995      -2.825717      -1.902292
H        0.594469      -6.999978       0.718542
H       -0.573646      -7.317194      -1.386096
H        1.853323      -7.296181      -1.336214
H        4.417262      -2.804299      -2.010804
[GEOCONV]
energy
0.0
6.990047678933479
37.0707203291895
38.26030492179416
66.33464296754391
53.66091091432463
53.3177395116727
50.5694058934605
50.276961861061864
50.93982133946702
52.917510895917076
max-force
0.0
0.009478029848552448
0.009105486458335754
0.005045041227022285
0.0005622369091361823
0.008401746678007159
0.003721166668316391
0.0023639530339176996
0.0012401110721913132
0.0013998011187899687
0.007994599871659853
max-step
1000.0
1000.0
1000.0
1000.0
1000.0
1000.0
1000.0
1000.0
1000.0
1000.0
1000.0
