[Molden Format]
[Geometries] (XYZ)
35

C        2.171975      -0.115727       0.908331
C        0.776561       0.267913       0.431064
O        0.309334      -0.604106      -0.561027
C       -0.204452       0.289100       1.578794
O       -1.282078      -0.233491       1.512497
H        2.133566      -1.110169       1.341397
H        2.526832       0.595658       1.648125
H        2.845976      -0.125994       0.057404
H        0.807346       1.293510       0.017577
H        0.135818       0.831600       2.477625
H       -0.632511      -0.753598      -0.369290
Sn       0.567360      -3.332966      -0.800497
O        0.750469      -5.192874      -1.129062
O        0.763286      -3.119235       1.082353
O       -1.230851      -2.944397      -1.147984
O        2.580572      -2.826661      -0.943997
O        1.026874      -2.612787      -2.695027
H        3.262085      -3.012539      -0.294883
H        0.636776      -3.037736      -3.461179
Si      -0.095298      -3.540242       2.387065
Si      -1.938836      -2.636291      -2.580763
Si       0.628507      -6.761477      -0.737922
Si       3.039240      -2.632330      -2.598778
H       -0.082093      -4.993213       2.530076
H       -1.441798      -2.989370       2.354880
H        0.763755      -2.876394       3.364387
H       -1.675707      -3.644508      -3.630539
H        2.825129      -3.640395      -3.642461
H       -1.745342      -1.274606      -3.106903
H        2.886143      -1.273272      -3.107821
H       -3.171995      -2.825717      -1.902292
H        0.594469      -6.999978       0.718542
H       -0.573646      -7.317194      -1.386096
H        1.853323      -7.296181      -1.336214
H        4.417262      -2.804299      -2.010804
35

C        2.226110      -0.373130       1.102523
C        0.959344       0.177540       0.522309
O        0.432560      -0.740942      -0.539581
C       -0.141053       0.338411       1.533694
O       -1.261616      -0.059116       1.362023
H        1.984364      -1.430572       1.405749
H        2.530315       0.112436       2.026662
H        3.023560      -0.394698       0.370082
H        1.100145       1.108814      -0.050723
H        0.158206       0.866631       2.453716
H       -0.530329      -0.724830      -0.396054
Sn       0.552640      -3.301169      -0.829791
O        0.745329      -5.183378      -1.100382
O        0.798217      -3.139528       1.105312
O       -1.261147      -2.981202      -1.149089
O        2.585767      -2.875047      -0.973313
O        0.995243      -2.631266      -2.727021
H        3.262645      -3.098688      -0.332093
H        0.614999      -3.072803      -3.487487
Si      -0.089178      -3.570706       2.386294
Si      -1.942538      -2.651141      -2.590647
Si       0.615888      -6.756809      -0.740424
Si       3.049817      -2.642851      -2.611532
H       -0.082093      -4.993213       2.530076
H       -1.441798      -2.989370       2.354880
H        0.763755      -2.876394       3.364387
H       -1.675707      -3.644508      -3.630539
H        2.825129      -3.640395      -3.642461
H       -1.745342      -1.274606      -3.106903
H        2.886143      -1.273272      -3.107821
H       -3.171995      -2.825717      -1.902292
H        0.594469      -6.999978       0.718542
H       -0.573646      -7.317194      -1.386096
H        1.853323      -7.296181      -1.336214
H        4.417262      -2.804299      -2.010804
35

C        2.236333      -0.625001       1.275443
C        1.135475       0.070013       0.592930
O        0.527182      -0.884986      -0.532724
C       -0.033834       0.427408       1.451142
O       -1.176967       0.189139       1.171295
H        1.812722      -1.713478       1.413950
H        2.397716      -0.366477       2.317392
H        3.141534      -0.677647       0.685145
H        1.408031       0.858920      -0.124202
H        0.238934       0.950465       2.383192
H       -0.426426      -0.701181      -0.452668
Sn       0.529903      -3.271385      -0.868969
O        0.744653      -5.171741      -1.074651
O        0.827954      -3.151780       1.117538
O       -1.296688      -3.019995      -1.151797
O        2.583385      -2.924802      -1.007838
O        0.956875      -2.661171      -2.768777
H        3.250942      -3.185776      -0.372861
H        0.593913      -3.127846      -3.520464
Si      -0.083370      -3.573905       2.385146
Si      -1.949272      -2.658376      -2.601201
Si       0.614591      -6.748231      -0.739835
Si       3.057621      -2.647402      -2.622542
H       -0.082093      -4.993213       2.530076
H       -1.441798      -2.989370       2.354880
H        0.763755      -2.876394       3.364387
H       -1.675707      -3.644508      -3.630539
H        2.825129      -3.640395      -3.642461
H       -1.745342      -1.274606      -3.106903
H        2.886143      -1.273272      -3.107821
H       -3.171995      -2.825717      -1.902292
H        0.594469      -6.999978       0.718542
H       -0.573646      -7.317194      -1.386096
H        1.853323      -7.296181      -1.336214
H        4.417262      -2.804299      -2.010804
35

C        2.205275      -0.947651       1.459449
C        1.310703      -0.062520       0.677664
O        0.604065      -0.983500      -0.462423
C        0.123667       0.552294       1.327121
O       -0.985794       0.466710       0.872435
H        1.676882      -1.941988       1.385243
H        2.117329      -0.935952       2.537909
H        3.200827      -1.043009       1.048705
H        1.764332       0.509669      -0.138973
H        0.339402       1.087195       2.269357
H       -0.294374      -0.601571      -0.460688
Sn       0.504278      -3.197188      -0.891937
O        0.733124      -5.141862      -1.028572
O        0.875704      -3.138958       1.096739
O       -1.329070      -3.015619      -1.123376
O        2.577362      -2.952598      -1.024678
O        0.900813      -2.660477      -2.784802
H        3.194977      -3.280847      -0.365146
H        0.541006      -3.166259      -3.510134
Si      -0.054236      -3.555545       2.355131
Si      -1.954936      -2.640205      -2.585323
Si       0.619707      -6.723169      -0.728208
Si       3.096208      -2.640842      -2.623465
H       -0.082093      -4.993213       2.530076
H       -1.441798      -2.989370       2.354880
H        0.763755      -2.876394       3.364387
H       -1.675707      -3.644508      -3.630539
H        2.825129      -3.640395      -3.642461
H       -1.745342      -1.274606      -3.106903
H        2.886143      -1.273272      -3.107821
H       -3.171995      -2.825717      -1.902292
H        0.594469      -6.999978       0.718542
H       -0.573646      -7.317194      -1.386096
H        1.853323      -7.296181      -1.336214
H        4.417262      -2.804299      -2.010804
35

C        2.290650      -0.987504       1.635509
C        1.518744      -0.121085       0.898530
O        0.647245      -1.169828      -0.585348
C        0.297949       0.465521       1.507496
O       -0.812722       0.435399       1.061380
H        1.526695      -2.170076       1.397012
H        2.107531      -1.096853       2.694290
H        3.286653      -1.214467       1.294303
H        1.924953       0.432661       0.061587
H        0.508429       0.966171       2.475282
H       -0.221407      -0.756075      -0.575428
Sn       0.524596      -3.200224      -0.960579
O        0.754061      -5.140424      -1.063205
O        0.891047      -3.126735       1.180073
O       -1.324419      -3.066083      -1.167179
O        2.589174      -2.980673      -1.040660
O        0.947289      -2.653103      -2.865269
H        3.249147      -3.280662      -0.414340
H        0.611575      -3.142368      -3.617083
Si      -0.093528      -3.551126       2.406081
Si      -1.959029      -2.644091      -2.601116
Si       0.624981      -6.719821      -0.742863
Si       3.079607      -2.638167      -2.633752
H       -0.082093      -4.993213       2.530076
H       -1.441798      -2.989370       2.354880
H        0.763755      -2.876394       3.364387
H       -1.675707      -3.644508      -3.630539
H        2.825129      -3.640395      -3.642461
H       -1.745342      -1.274606      -3.106903
H        2.886143      -1.273272      -3.107821
H       -3.171995      -2.825717      -1.902292
H        0.594469      -6.999978       0.718542
H       -0.573646      -7.317194      -1.386096
H        1.853323      -7.296181      -1.336214
H        4.417262      -2.804299      -2.010804
35

C        2.741432      -0.916878       1.825918
C        1.933475       0.016548       1.305971
O        0.687932      -1.304646      -0.571249
C        0.693311       0.501521       1.950057
O       -0.391966       0.535029       1.422663
H        1.555888      -2.446665       1.434465
H        2.569019      -1.315567       2.829687
H        3.636631      -1.239252       1.329620
H        2.180736       0.453781       0.339750
H        0.829288       0.859545       2.996738
H       -0.133764      -0.814497      -0.565261
Sn       0.526470      -3.156509      -1.040263
O        0.783691      -5.106990      -0.993778
O        0.977039      -3.197207       1.242932
O       -1.335089      -3.111145      -1.180973
O        2.577853      -3.034816      -1.092231
O        0.907369      -2.664912      -2.918034
H        3.220945      -3.393121      -0.482708
H        0.589230      -3.161560      -3.666081
Si      -0.092724      -3.549329       2.413112
Si      -1.961964      -2.640412      -2.592423
Si       0.623610      -6.698975      -0.745299
Si       3.119793      -2.630226      -2.641136
H       -0.082093      -4.993213       2.530076
H       -1.441798      -2.989370       2.354880
H        0.763755      -2.876394       3.364387
H       -1.675707      -3.644508      -3.630539
H        2.825129      -3.640395      -3.642461
H       -1.745342      -1.274606      -3.106903
H        2.886143      -1.273272      -3.107821
H       -3.171995      -2.825717      -1.902292
H        0.594469      -6.999978       0.718542
H       -0.573646      -7.317194      -1.386096
H        1.853323      -7.296181      -1.336214
H        4.417262      -2.804299      -2.010804
35

C        2.824744      -1.092145       1.803284
C        1.993381      -0.152676       1.389185
O        0.703386      -1.316177      -0.535357
C        0.799545       0.242575       2.151194
O       -0.324863       0.291392       1.734815
H        1.596435      -2.561588       1.424304
H        2.718936      -1.575243       2.761571
H        3.704646      -1.347852       1.235636
H        2.171625       0.376604       0.463294
H        1.013922       0.538821       3.202998
H       -0.131231      -0.848321      -0.462115
Sn       0.509288      -3.171594      -1.049285
O        0.729244      -5.123071      -1.039483
O        0.992974      -3.287030       1.233555
O       -1.338225      -3.091785      -1.194870
O        2.590430      -3.081141      -1.099294
O        0.902186      -2.649737      -2.941674
H        3.230707      -3.450122      -0.490619
H        0.580387      -3.169743      -3.681862
Si      -0.110179      -3.563774       2.426157
Si      -1.972260      -2.655551      -2.619455
Si       0.620591      -6.703175      -0.750857
Si       3.096498      -2.641934      -2.651421
H       -0.082093      -4.993213       2.530076
H       -1.441798      -2.989370       2.354880
H        0.763755      -2.876394       3.364387
H       -1.675707      -3.644508      -3.630539
H        2.825129      -3.640395      -3.642461
H       -1.745342      -1.274606      -3.106903
H        2.886143      -1.273272      -3.107821
H       -3.171995      -2.825717      -1.902292
H        0.594469      -6.999978       0.718542
H       -0.573646      -7.317194      -1.386096
H        1.853323      -7.296181      -1.336214
H        4.417262      -2.804299      -2.010804
35

C        2.847710      -1.100600       1.800477
C        1.975160      -0.181393       1.408848
O        0.692516      -1.323274      -0.518988
C        0.773625       0.150605       2.192000
O       -0.348356       0.169699       1.771764
H        1.607459      -2.557409       1.410112
H        2.770067      -1.602495       2.751527
H        3.715333      -1.327580       1.204040
H        2.120982       0.364395       0.486748
H        0.982694       0.375014       3.259919
H       -0.146926      -0.868407      -0.436369
Sn       0.510750      -3.178653      -1.049574
O        0.730610      -5.124924      -1.042684
O        0.991677      -3.286839       1.227514
O       -1.333507      -3.109440      -1.188000
O        2.587382      -3.077199      -1.091014
O        0.910104      -2.655173      -2.933808
H        3.234506      -3.442054      -0.491395
H        0.594220      -3.177178      -3.669781
Si      -0.101277      -3.559828       2.422267
Si      -1.966114      -2.647430      -2.607664
Si       0.627320      -6.705981      -0.743342
Si       3.092029      -2.639144      -2.640495
H       -0.082093      -4.993213       2.530076
H       -1.441798      -2.989370       2.354880
H        0.763755      -2.876394       3.364387
H       -1.675707      -3.644508      -3.630539
H        2.825129      -3.640395      -3.642461
H       -1.745342      -1.274606      -3.106903
H        2.886143      -1.273272      -3.107821
H       -3.171995      -2.825717      -1.902292
H        0.594469      -6.999978       0.718542
H       -0.573646      -7.317194      -1.386096
H        1.853323      -7.296181      -1.336214
H        4.417262      -2.804299      -2.010804
35

C        2.975336      -0.629487       1.878352
C        1.935333       0.108968       1.535989
O        0.716773      -1.330387      -0.513661
C        0.683266       0.134359       2.316618
O       -0.420653      -0.073906       1.886615
H        1.565546      -2.566472       1.275349
H        2.996258      -1.245159       2.767713
H        3.860471      -0.644773       1.264632
H        1.936822       0.702246       0.627292
H        0.826100       0.367828       3.396856
H       -0.112031      -0.899976      -0.308634
Sn       0.521717      -3.160522      -1.084588
O        0.767937      -5.127182      -1.064300
O        0.958407      -3.321129       1.185885
O       -1.316031      -3.103467      -1.183295
O        2.593595      -3.074273      -1.090916
O        0.899433      -2.663300      -2.964746
H        3.224125      -3.494717      -0.518033
H        0.581794      -3.205529      -3.682674
Si      -0.092589      -3.530755       2.419619
Si      -1.950190      -2.616058      -2.586442
Si       0.646179      -6.697505      -0.739307
Si       3.111147      -2.629329      -2.643420
H       -0.082093      -4.993213       2.530076
H       -1.441798      -2.989370       2.354880
H        0.763755      -2.876394       3.364387
H       -1.675707      -3.644508      -3.630539
H        2.825129      -3.640395      -3.642461
H       -1.745342      -1.274606      -3.106903
H        2.886143      -1.273272      -3.107821
H       -3.171995      -2.825717      -1.902292
H        0.594469      -6.999978       0.718542
H       -0.573646      -7.317194      -1.386096
H        1.853323      -7.296181      -1.336214
H        4.417262      -2.804299      -2.010804
35

C        2.714434       0.117171       1.583496
C        1.539007       0.622652       1.255324
O        0.705094      -1.342341      -0.549021
C        0.313936       0.458840       2.066469
O       -0.680079      -0.133415       1.730475
H        1.560570      -2.628139       1.214775
H        2.860322      -0.462604       2.488307
H        3.575018       0.237550       0.946088
H        1.418486       1.183582       0.340003
H        0.356601       0.965822       3.048859
H       -0.127867      -0.957164      -0.253333
Sn       0.508649      -3.186745      -1.127678
O        0.742683      -5.143375      -1.074830
O        0.942321      -3.345394       1.181777
O       -1.336459      -3.143228      -1.199270
O        2.592305      -3.133042      -1.114264
O        0.884851      -2.697564      -3.000040
H        3.211444      -3.580665      -0.538385
H        0.545159      -3.219613      -3.728611
Si      -0.093262      -3.571218       2.438220
Si      -1.971638      -2.639699      -2.598216
Si       0.604464      -6.715052      -0.759819
Si       3.109421      -2.652487      -2.655448
H       -0.082093      -4.993213       2.530076
H       -1.441798      -2.989370       2.354880
H        0.763755      -2.876394       3.364387
H       -1.675707      -3.644508      -3.630539
H        2.825129      -3.640395      -3.642461
H       -1.745342      -1.274606      -3.106903
H        2.886143      -1.273272      -3.107821
H       -3.171995      -2.825717      -1.902292
H        0.594469      -6.999978       0.718542
H       -0.573646      -7.317194      -1.386096
H        1.853323      -7.296181      -1.336214
H        4.417262      -2.804299      -2.010804
35

C        2.578344       0.726494       0.897384
C        1.348551       1.125129       0.644839
O        0.765757      -1.350907      -0.618120
C        0.218579       1.023373       1.593353
O       -0.594167       0.138752       1.603775
H        1.591881      -2.613434       1.330156
H        2.852659       0.303257       1.855847
H        3.353800       0.774677       0.156498
H        1.076128       1.566662      -0.297773
H        0.147369       1.859320       2.312493
H        0.010780      -0.884052      -0.249265
Sn       0.525089      -3.165668      -1.169869
O        0.766174      -5.131583      -1.068918
O        0.911896      -3.274914       1.167576
O       -1.321525      -3.167862      -1.196659
O        2.587017      -3.159826      -1.141826
O        0.864706      -2.656278      -3.033582
H        3.198532      -3.622526      -0.561297
H        0.454925      -3.115594      -3.772480
Si      -0.106647      -3.553566       2.423064
Si      -1.968905      -2.657753      -2.595572
Si       0.623852      -6.700956      -0.751343
Si       3.117976      -2.636083      -2.662964
H       -0.082093      -4.993213       2.530076
H       -1.441798      -2.989370       2.354880
H        0.763755      -2.876394       3.364387
H       -1.675707      -3.644508      -3.630539
H        2.825129      -3.640395      -3.642461
H       -1.745342      -1.274606      -3.106903
H        2.886143      -1.273272      -3.107821
H       -3.171995      -2.825717      -1.902292
H        0.594469      -6.999978       0.718542
H       -0.573646      -7.317194      -1.386096
H        1.853323      -7.296181      -1.336214
H        4.417262      -2.804299      -2.010804
[GEOCONV]
energy
0.0
6.34230037148518
22.564039806384244
42.58170404439443
65.50794152892195
52.26203116685065
51.345273812505184
50.71831044196006
49.53646509216196
50.407124307479535
52.917510895917076
max-force
0.0
0.009478029848552448
0.009105486458335754
0.00638670692386495
0.0006940065177066025
0.01866596849178036
0.004180984610949151
0.002121061188265897
0.009632869134647839
0.00635482565886598
0.007994599871659853
max-step
1000.0
1000.0
1000.0
1000.0
1000.0
1000.0
1000.0
1000.0
1000.0
1000.0
1000.0
