[Molden Format]
[Geometries] (XYZ)
35

C        2.171975      -0.115727       0.908331
C        0.776561       0.267913       0.431064
O        0.309334      -0.604106      -0.561027
C       -0.204452       0.289100       1.578794
O       -1.282078      -0.233491       1.512497
H        2.133566      -1.110169       1.341397
H        2.526832       0.595658       1.648125
H        2.845976      -0.125994       0.057404
H        0.807346       1.293510       0.017577
H        0.135818       0.831600       2.477625
H       -0.632511      -0.753598      -0.369290
Sn       0.567360      -3.332966      -0.800497
O        0.750469      -5.192874      -1.129062
O        0.763286      -3.119235       1.082353
O       -1.230851      -2.944397      -1.147984
O        2.580572      -2.826661      -0.943997
O        1.026874      -2.612787      -2.695027
H        3.262085      -3.012539      -0.294883
H        0.636776      -3.037736      -3.461179
Si      -0.095298      -3.540242       2.387065
Si      -1.938836      -2.636291      -2.580763
Si       0.628507      -6.761477      -0.737922
Si       3.039240      -2.632330      -2.598778
H       -0.082093      -4.993213       2.530076
H       -1.441798      -2.989370       2.354880
H        0.763755      -2.876394       3.364387
H       -1.675707      -3.644508      -3.630539
H        2.825129      -3.640395      -3.642461
H       -1.745342      -1.274606      -3.106903
H        2.886143      -1.273272      -3.107821
H       -3.171995      -2.825717      -1.902292
H        0.594469      -6.999978       0.718542
H       -0.573646      -7.317194      -1.386096
H        1.853323      -7.296181      -1.336214
H        4.417262      -2.804299      -2.010804
35

C        2.230446      -0.375923       1.107281
C        0.951247       0.174700       0.541888
O        0.432363      -0.738457      -0.537236
C       -0.141085       0.297227       1.569912
O       -1.254512      -0.122772       1.407217
H        1.990992      -1.436193       1.412022
H        2.551163       0.114873       2.023828
H        3.015689      -0.396534       0.362830
H        1.074593       1.125621      -0.001670
H        0.159453       0.818018       2.495223
H       -0.528032      -0.730582      -0.382098
Sn       0.556220      -3.301938      -0.827213
O        0.745789      -5.184818      -1.105071
O        0.794818      -3.136454       1.105587
O       -1.258557      -2.979682      -1.151675
O        2.585102      -2.867818      -0.968131
O        1.001541      -2.623963      -2.723165
H        3.263819      -3.087230      -0.326699
H        0.619451      -3.058540      -3.487070
Si      -0.093288      -3.572012       2.385045
Si      -1.943734      -2.655200      -2.592015
Si       0.616352      -6.758387      -0.744323
Si       3.049382      -2.643565      -2.610019
H       -0.082093      -4.993213       2.530076
H       -1.441798      -2.989370       2.354880
H        0.763755      -2.876394       3.364387
H       -1.675707      -3.644508      -3.630539
H        2.825129      -3.640395      -3.642461
H       -1.745342      -1.274606      -3.106903
H        2.886143      -1.273272      -3.107821
H       -3.171995      -2.825717      -1.902292
H        0.594469      -6.999978       0.718542
H       -0.573646      -7.317194      -1.386096
H        1.853323      -7.296181      -1.336214
H        4.417262      -2.804299      -2.010804
35

C        2.257305      -0.635917       1.289159
C        1.140021       0.062486       0.636215
O        0.536892      -0.892535      -0.537840
C       -0.034610       0.341027       1.524579
O       -1.172066       0.058810       1.255167
H        1.821260      -1.736215       1.431398
H        2.440461      -0.375769       2.329732
H        3.149252      -0.699115       0.686211
H        1.379115       0.893219      -0.038486
H        0.230715       0.848461       2.467533
H       -0.413183      -0.719580      -0.432572
Sn       0.545193      -3.267651      -0.862015
O        0.749334      -5.173358      -1.079420
O        0.829840      -3.142605       1.128468
O       -1.283274      -3.012971      -1.156636
O        2.587285      -2.906737      -0.996923
O        0.974204      -2.641873      -2.761507
H        3.260371      -3.157722      -0.360945
H        0.604836      -3.098537      -3.518392
Si      -0.090634      -3.574598       2.386621
Si      -1.947133      -2.663554      -2.600832
Si       0.614096      -6.750292      -0.745194
Si       3.059035      -2.646439      -2.623596
H       -0.082093      -4.993213       2.530076
H       -1.441798      -2.989370       2.354880
H        0.763755      -2.876394       3.364387
H       -1.675707      -3.644508      -3.630539
H        2.825129      -3.640395      -3.642461
H       -1.745342      -1.274606      -3.106903
H        2.886143      -1.273272      -3.107821
H       -3.171995      -2.825717      -1.902292
H        0.594469      -6.999978       0.718542
H       -0.573646      -7.317194      -1.386096
H        1.853323      -7.296181      -1.336214
H        4.417262      -2.804299      -2.010804
35

C        2.240226      -0.898225       1.408849
C        1.301997      -0.088263       0.641341
O        0.624876      -1.023666      -0.523856
C        0.103068       0.424719       1.360925
O       -1.031552       0.308613       0.967622
H        1.686120      -1.935531       1.387017
H        2.189422      -0.810103       2.491722
H        3.218272      -1.037012       0.983436
H        1.648213       0.525771      -0.184943
H        0.339046       0.947051       2.292963
H       -0.284668      -0.680764      -0.483179
Sn       0.533573      -3.230015      -0.887514
O        0.760428      -5.153580      -1.028405
O        0.863484      -3.137491       1.122711
O       -1.297479      -3.034660      -1.132855
O        2.585512      -2.947359      -1.015482
O        0.938423      -2.681385      -2.794787
H        3.240125      -3.237999      -0.375539
H        0.577420      -3.183624      -3.527239
Si      -0.083022      -3.537811       2.364316
Si      -1.938142      -2.637647      -2.575486
Si       0.622668      -6.735107      -0.732881
Si       3.068126      -2.638640      -2.618632
H       -0.082093      -4.993213       2.530076
H       -1.441798      -2.989370       2.354880
H        0.763755      -2.876394       3.364387
H       -1.675707      -3.644508      -3.630539
H        2.825129      -3.640395      -3.642461
H       -1.745342      -1.274606      -3.106903
H        2.886143      -1.273272      -3.107821
H       -3.171995      -2.825717      -1.902292
H        0.594469      -6.999978       0.718542
H       -0.573646      -7.317194      -1.386096
H        1.853323      -7.296181      -1.336214
H        4.417262      -2.804299      -2.010804
35

C        2.310258      -0.988079       1.639107
C        1.508344      -0.128363       0.930809
O        0.643084      -1.180357      -0.583110
C        0.274152       0.403216       1.562894
O       -0.838363       0.341988       1.122360
H        1.533521      -2.175780       1.399453
H        2.151131      -1.118409       2.699752
H        3.299161      -1.203306       1.269195
H        1.880921       0.444986       0.093454
H        0.476249       0.898494       2.534569
H       -0.228959      -0.775030      -0.557134
Sn       0.526984      -3.206427      -0.953955
O        0.759053      -5.142435      -1.049644
O        0.890636      -3.133727       1.182726
O       -1.321090      -3.067373      -1.168940
O        2.589095      -2.972622      -1.039564
O        0.949285      -2.665542      -2.864164
H        3.254430      -3.264442      -0.413383
H        0.603169      -3.148468      -3.615892
Si      -0.096341      -3.550151       2.407722
Si      -1.957264      -2.642938      -2.599204
Si       0.624412      -6.723308      -0.743162
Si       3.076598      -2.636920      -2.634149
H       -0.082093      -4.993213       2.530076
H       -1.441798      -2.989370       2.354880
H        0.763755      -2.876394       3.364387
H       -1.675707      -3.644508      -3.630539
H        2.825129      -3.640395      -3.642461
H       -1.745342      -1.274606      -3.106903
H        2.886143      -1.273272      -3.107821
H       -3.171995      -2.825717      -1.902292
H        0.594469      -6.999978       0.718542
H       -0.573646      -7.317194      -1.386096
H        1.853323      -7.296181      -1.336214
H        4.417262      -2.804299      -2.010804
35

C        2.803000      -0.979848       1.780123
C        1.907435      -0.103267       1.357143
O        0.664233      -1.345217      -0.510419
C        0.696556       0.219657       2.131942
O       -0.441023       0.117405       1.740154
H        1.570824      -2.522191       1.412265
H        2.721478      -1.466483       2.736720
H        3.701630      -1.179173       1.203077
H        2.050738       0.446557       0.446787
H        0.911330       0.599245       3.148266
H       -0.181118      -0.901406      -0.417283
Sn       0.512762      -3.201423      -1.041613
O        0.749199      -5.146426      -1.046822
O        0.979026      -3.259081       1.232277
O       -1.333872      -3.142424      -1.205089
O        2.585739      -3.052435      -1.087740
O        0.899216      -2.653211      -2.924766
H        3.233351      -3.376803      -0.462554
H        0.590324      -3.158476      -3.674958
Si      -0.095260      -3.562656       2.441540
Si      -1.966874      -2.644565      -2.609547
Si       0.619333      -6.720833      -0.741267
Si       3.091282      -2.634974      -2.648686
H       -0.082093      -4.993213       2.530076
H       -1.441798      -2.989370       2.354880
H        0.763755      -2.876394       3.364387
H       -1.675707      -3.644508      -3.630539
H        2.825129      -3.640395      -3.642461
H       -1.745342      -1.274606      -3.106903
H        2.886143      -1.273272      -3.107821
H       -3.171995      -2.825717      -1.902292
H        0.594469      -6.999978       0.718542
H       -0.573646      -7.317194      -1.386096
H        1.853323      -7.296181      -1.336214
H        4.417262      -2.804299      -2.010804
35

C        2.843189      -1.108064       1.743486
C        1.917881      -0.204181       1.367131
O        0.690491      -1.296532      -0.482170
C        0.748673       0.125918       2.205987
O       -0.403204       0.079787       1.847196
H        1.656141      -2.501983       1.394744
H        2.824328      -1.612787       2.702267
H        3.704894      -1.274400       1.128523
H        2.053801       0.373794       0.472682
H        1.007708       0.401323       3.228431
H       -0.164642      -0.882726      -0.360716
Sn       0.534935      -3.177259      -1.019412
O        0.711171      -5.124272      -1.051186
O        1.004715      -3.268840       1.203502
O       -1.313097      -3.076489      -1.163642
O        2.600382      -3.070034      -1.068785
O        0.939097      -2.636425      -2.908489
H        3.252712      -3.423741      -0.469201
H        0.623560      -3.129937      -3.668980
Si      -0.071872      -3.546679       2.425040
Si      -1.952616      -2.620974      -2.577495
Si       0.617624      -6.694484      -0.734029
Si       3.098937      -2.625220      -2.635801
H       -0.082093      -4.993213       2.530076
H       -1.441798      -2.989370       2.354880
H        0.763755      -2.876394       3.364387
H       -1.675707      -3.644508      -3.630539
H        2.825129      -3.640395      -3.642461
H       -1.745342      -1.274606      -3.106903
H        2.886143      -1.273272      -3.107821
H       -3.171995      -2.825717      -1.902292
H        0.594469      -6.999978       0.718542
H       -0.573646      -7.317194      -1.386096
H        1.853323      -7.296181      -1.336214
H        4.417262      -2.804299      -2.010804
35

C        2.811226      -1.015596       1.762232
C        1.887540      -0.154831       1.360349
O        0.684756      -1.320669      -0.532341
C        0.674615       0.137071       2.140621
O       -0.458207       0.055499       1.734410
H        1.599732      -2.519264       1.393091
H        2.753538      -1.506182       2.719745
H        3.706217      -1.186925       1.183575
H        2.013426       0.405336       0.446639
H        0.880907       0.468898       3.174173
H       -0.156787      -0.891685      -0.383241
Sn       0.519922      -3.187456      -1.048539
O        0.713593      -5.129609      -1.048791
O        0.983442      -3.277384       1.217126
O       -1.334439      -3.102876      -1.185846
O        2.591893      -3.082418      -1.082959
O        0.924864      -2.657204      -2.938292
H        3.251050      -3.438107      -0.486731
H        0.625532      -3.153117      -3.700131
Si      -0.093364      -3.552380       2.429054
Si      -1.968648      -2.645274      -2.601710
Si       0.618186      -6.708959      -0.746805
Si       3.088921      -2.641836      -2.647465
H       -0.082093      -4.993213       2.530076
H       -1.441798      -2.989370       2.354880
H        0.763755      -2.876394       3.364387
H       -1.675707      -3.644508      -3.630539
H        2.825129      -3.640395      -3.642461
H       -1.745342      -1.274606      -3.106903
H        2.886143      -1.273272      -3.107821
H       -3.171995      -2.825717      -1.902292
H        0.594469      -6.999978       0.718542
H       -0.573646      -7.317194      -1.386096
H        1.853323      -7.296181      -1.336214
H        4.417262      -2.804299      -2.010804
35

C        2.886769      -0.665450       1.812985
C        1.821821       0.066828       1.524794
O        0.704176      -1.319148      -0.540401
C        0.578201       0.042667       2.319190
O       -0.509492      -0.261265       1.900148
H        1.578954      -2.575780       1.307501
H        2.925100      -1.312329       2.674667
H        3.763256      -0.643524       1.183249
H        1.791147       0.680545       0.637717
H        0.711245       0.337344       3.378138
H       -0.127666      -0.918031      -0.276136
Sn       0.513058      -3.175781      -1.084358
O        0.761609      -5.130486      -1.045760
O        0.965959      -3.319882       1.203592
O       -1.337911      -3.112856      -1.185008
O        2.590307      -3.071018      -1.091083
O        0.900545      -2.688715      -2.963255
H        3.218598      -3.502904      -0.505751
H        0.578754      -3.215442      -3.700478
Si      -0.100844      -3.561133       2.428928
Si      -1.961281      -2.644671      -2.603356
Si       0.623372      -6.708978      -0.742758
Si       3.104090      -2.639341      -2.644853
H       -0.082093      -4.993213       2.530076
H       -1.441798      -2.989370       2.354880
H        0.763755      -2.876394       3.364387
H       -1.675707      -3.644508      -3.630539
H        2.825129      -3.640395      -3.642461
H       -1.745342      -1.274606      -3.106903
H        2.886143      -1.273272      -3.107821
H       -3.171995      -2.825717      -1.902292
H        0.594469      -6.999978       0.718542
H       -0.573646      -7.317194      -1.386096
H        1.853323      -7.296181      -1.336214
H        4.417262      -2.804299      -2.010804
35

C        2.753852       0.042600       1.598745
C        1.583365       0.582893       1.298522
O        0.712054      -1.341543      -0.553297
C        0.362169       0.420765       2.114364
O       -0.623640      -0.181885       1.777955
H        1.589149      -2.657880       1.276991
H        2.898589      -0.558407       2.482675
H        3.600139       0.144125       0.942553
H        1.453102       1.150377       0.392719
H        0.401541       0.930325       3.096811
H       -0.108322      -0.954545      -0.236228
Sn       0.517326      -3.186085      -1.122177
O        0.744011      -5.145604      -1.075873
O        0.959969      -3.357790       1.193353
O       -1.331370      -3.137475      -1.196034
O        2.591029      -3.129160      -1.111018
O        0.887981      -2.682358      -2.993160
H        3.202525      -3.586832      -0.531153
H        0.546102      -3.200783      -3.727438
Si      -0.093973      -3.575292       2.434644
Si      -1.963213      -2.649087      -2.605297
Si       0.615716      -6.715585      -0.755178
Si       3.109871      -2.648535      -2.652608
H       -0.082093      -4.993213       2.530076
H       -1.441798      -2.989370       2.354880
H        0.763755      -2.876394       3.364387
H       -1.675707      -3.644508      -3.630539
H        2.825129      -3.640395      -3.642461
H       -1.745342      -1.274606      -3.106903
H        2.886143      -1.273272      -3.107821
H       -3.171995      -2.825717      -1.902292
H        0.594469      -6.999978       0.718542
H       -0.573646      -7.317194      -1.386096
H        1.853323      -7.296181      -1.336214
H        4.417262      -2.804299      -2.010804
35

C        2.578344       0.726494       0.897384
C        1.348551       1.125129       0.644839
O        0.765757      -1.350907      -0.618120
C        0.218579       1.023373       1.593353
O       -0.594167       0.138752       1.603775
H        1.591881      -2.613434       1.330156
H        2.852659       0.303257       1.855847
H        3.353800       0.774677       0.156498
H        1.076128       1.566662      -0.297773
H        0.147369       1.859320       2.312493
H        0.010780      -0.884052      -0.249265
Sn       0.525089      -3.165668      -1.169869
O        0.766174      -5.131583      -1.068918
O        0.911896      -3.274914       1.167576
O       -1.321525      -3.167862      -1.196659
O        2.587017      -3.159826      -1.141826
O        0.864706      -2.656278      -3.033582
H        3.198532      -3.622526      -0.561297
H        0.454925      -3.115594      -3.772480
Si      -0.106647      -3.553566       2.423064
Si      -1.968905      -2.657753      -2.595572
Si       0.623852      -6.700956      -0.751343
Si       3.117976      -2.636083      -2.662964
H       -0.082093      -4.993213       2.530076
H       -1.441798      -2.989370       2.354880
H        0.763755      -2.876394       3.364387
H       -1.675707      -3.644508      -3.630539
H        2.825129      -3.640395      -3.642461
H       -1.745342      -1.274606      -3.106903
H        2.886143      -1.273272      -3.107821
H       -3.171995      -2.825717      -1.902292
H        0.594469      -6.999978       0.718542
H       -0.573646      -7.317194      -1.386096
H        1.853323      -7.296181      -1.336214
H        4.417262      -2.804299      -2.010804
[GEOCONV]
energy
0.0
6.438209645079041
25.209108282120724
42.16845793010725
65.73950739753491
51.80367095244583
54.522372955136234
51.60104476218112
49.09886325953994
50.316441479328205
52.917510895917076
max-force
0.0
0.009478029848552448
0.009105486458335754
0.005622919515431068
0.001022562465346872
0.004320029504625662
0.014976330120757431
0.003975235693947638
0.0019579920459497926
0.005045663750699136
0.007994599871659853
max-step
1000.0
1000.0
1000.0
1000.0
1000.0
1000.0
1000.0
1000.0
1000.0
1000.0
1000.0
