35
 energy: -54.281569747760 gnorm: 0.000751861537 xtb: 6.4.0 (4cdc11a)
  C   2.41787903933970     -0.24397733942972      0.85743909268068
  C   1.06598843795137      0.16474496080228      0.30726631832181
  O   0.50508457740570     -0.78900096537318     -0.56027884714026
  C   0.06976269379889      0.45780245096546      1.40460431762518
  O   -1.04822064679062      0.01707494360534      1.37076611169947
  H   2.33114220662629     -1.19625496391520      1.39883432671634
  H   2.79028169822027      0.53402579225660      1.54044790404417
  H   3.14179551604555     -0.35572865688541      0.04001475813840
  H   1.18450439181796      1.12443739287500     -0.24095451404939
  H   0.41939799723103      1.12750722376525      2.22727703214289
  H   -0.46031019107914     -0.80702466108744     -0.38443028864682
  Sn  0.60083513915809     -3.21486459816104     -0.76234952932446
  O   0.66953352737241     -5.12352519593665     -1.16627104626441
  O   0.92974586291704     -3.11950643803594      1.13604520347803
  O   -1.24297260031242     -2.73846868289882     -1.01710032455319
  O   2.60221351737157     -2.78865846907636     -0.89881369764359
  O   1.02364175244147     -2.70932512801511     -2.72047898659484
  H   3.27410367516323     -3.00963696383926     -0.24511268059787
  H   0.81736816029732     -3.44479537277401     -3.31213206254563
  Si  -0.05652592680924     -3.52936032572387      2.38280005377311
  Si  -1.91905223123037     -2.62172122529120     -2.53245929748832
  Si  0.62597256511467     -6.70760278578502     -0.75744699466663
  Si  3.04826967410507     -2.62760650486799     -2.59946656968698
  H   -0.08209300254079     -4.99321298814156      2.53007601246391
  H   -1.44179797209750     -2.98937001385925      2.35488000315465
  H   0.76375498002582     -2.87639401618456      3.36438698280131
  H   -1.67570698423452     -3.64450799444378     -3.63053901409372
  H   2.82512910251625     -3.64039502231917     -3.64246100665367
  H   -1.74534202886110     -1.27460601287071     -3.10690297250078
  H   2.88614296139714     -1.27327196611024     -3.10782101716782
  H   -3.17199500391931     -2.82571698492580     -1.90229199909327
  H   0.59446900555872     -6.99997800925686      0.71854203952446
  H   -0.57364600954200     -7.31719400721870     -1.38609601570680
  H   1.85332297174874     -7.29618098536588     -1.33621399433332
  H   4.41726196424954     -2.80429901796535     -2.01080400950775
