                  Welcome to Q-Chem
     A Quantum Leap Into The Future Of Chemistry


 Q-Chem 5.3 (devel), Q-Chem, Inc., Pleasanton, CA (2020)

 Yihan Shao,  Zhengting Gan,  E. Epifanovsky,  A. T. B. Gilbert,  M. Wormit,  
 J. Kussmann,  A. W. Lange,  A. Behn,  Jia Deng,  Xintian Feng,  D. Ghosh,  
 M. Goldey,  P. R. Horn,  L. D. Jacobson,  I. Kaliman,  T. Kus,  A. Landau,  
 Jie Liu,  E. I. Proynov,  R. M. Richard,  R. P. Steele,  E. J. Sundstrom,  
 H. L. Woodcock III,  P. M. Zimmerman,  D. Zuev,  B. Alam,  B. Albrecht,  
 E. Alguire,  S. A. Baeppler,  D. Barton,  Z. Benda,  Y. A. Bernard,  
 E. J. Berquist,  K. B. Bravaya,  H. Burton,  K. Carter-Fenk,  D. Casanova,  
 Chun-Min Chang,  Yunqing Chen,  A. Chien,  K. D. Closser,  M. P. Coons,  
 S. Coriani,  S. Dasgupta,  A. L. Dempwolff,  M. Diedenhofen,  Hainam Do,  
 R. G. Edgar,  Po-Tung Fang,  S. Faraji,  S. Fatehi,  Qingguo Feng,  
 J. Fosso-Tande,  J. Gayvert,  Qinghui Ge,  A. Ghysels,  G. Gidofalvi,  
 J. Gomes,  J. Gonthier,  A. Gunina,  D. Hait,  M. W. D. Hanson-Heine,  
 P. H. P. Harbach,  A. W. Hauser,  M. F. Herbst,  J. E. Herr,  
 E. G. Hohenstein,  Z. C. Holden,  Kerwin Hui,  B. C. Huynh,  T.-C. Jagau,  
 Hyunjun Ji,  B. Kaduk,  K. Khistyaev,  Jaehoon Kim,  P. Klunzinger,  K. Koh,  
 D. Kosenkov,  L. Koulias,  T. Kowalczyk,  C. M. Krauter,  A. Kunitsa,  
 Ka Un Lao,  A. Laurent,  K. V. Lawler,  Joonho Lee,  D. Lefrancois,  
 S. Lehtola,  D. S. Levine,  Yi-Pei Li,  You-Sheng Lin,  Fenglai Liu,  
 Kuan-Yu Liu,  E. Livshits,  M. Loipersberger,  A. Luenser,  P. Manohar,  
 E. Mansoor,  S. F. Manzer,  Shan-Ping Mao,  Yuezhi Mao,  N. Mardirossian,  
 A. V. Marenich,  T. Markovich,  L. A. Martinez-Martinez,  S. A. Maurer,  
 N. J. Mayhall,  S. C. McKenzie,  J.-M. Mewes,  P. Morgante,  A. F. Morrison,  
 J. W. Mullinax,  K. Nanda,  T. S. Nguyen-Beck,  R. Olivares-Amaya,  
 K. J. Oosterbaan,  J. A. Parkhill,  S. K. Paul,  F. Pavosevic,  Zheng Pei,  
 T. M. Perrine,  F. Plasser,  P. Pokhilko,  S. Prager,  A. Prociuk,  
 E. Ramos,  B. Rana,  D. R. Rehn,  F. Rob,  M. Scheurer,  M. Schneider,  
 N. Sergueev,  S. M. Sharada,  S. Sharma,  D. W. Small,  T. Stauch,  
 C. J. Stein,  T. Stein,  Yu-Chuan Su,  S. P. Veccham,  Zhen Tao,  
 A. J. W. Thom,  A. Tkatchenko,  T. Tsuchimochi,  N. M. Tubman,  L. Vogt,  
 M. L. Vidal,  O. Vydrov,  M. A. Watson,  J. Wenzel,  M. de Wergifosse,  
 T. A. Wesolowski,  A. White,  J. Witte,  A. Yamada,  Jun Yang,  K. Yao,  
 S. Yeganeh,  S. R. Yost,  Zhi-Qiang You,  A. Zech,  Igor Ying Zhang,  
 Xing Zhang,  Yan Zhao,  Ying Zhu,  B. R. Brooks,  G. K. L. Chan,  
 C. J. Cramer,  M. S. Gordon,  W. J. Hehre,  A. Klamt,  M. W. Schmidt,  
 C. D. Sherrill,  D. G. Truhlar,  A. Aspuru-Guzik,  R. Baer,  A. T. Bell,  
 N. A. Besley,  Jeng-Da Chai,  A. E. DePrince, III,  R. A. DiStasio Jr.,  
 A. Dreuw,  B. D. Dunietz,  T. R. Furlani,  Chao-Ping Hsu,  Yousung Jung,  
 Jing Kong,  D. S. Lambrecht,  WanZhen Liang,  C. Ochsenfeld,  
 V. A. Rassolov,  L. V. Slipchenko,  J. E. Subotnik,  T. Van Voorhis,  
 J. M. Herbert,  A. I. Krylov,  P. M. W. Gill,  M. Head-Gordon

 Contributors to earlier versions of Q-Chem not listed above: 
 R. D. Adamson,  B. Austin,  J. Baker,  G. J. O. Beran,  K. Brandhorst,  
 S. T. Brown,  E. F. C. Byrd,  A. K. Chakraborty,  C.-L. Cheng,  
 Siu Hung Chien,  D. M. Chipman,  D. L. Crittenden,  H. Dachsel,  
 R. J. Doerksen,  A. D. Dutoi,  L. Fusti-Molnar,  W. A. Goddard III,  
 A. Golubeva-Zadorozhnaya,  S. R. Gwaltney,  G. Hawkins,  A. Heyden,  
 S. Hirata,  G. Kedziora,  F. J. Keil,  C. Kelley,  Jihan Kim,  R. A. King,  
 R. Z. Khaliullin,  P. P. Korambath,  W. Kurlancheek,  A. M. Lee,  M. S. Lee,  
 S. V. Levchenko,  Ching Yeh Lin,  D. Liotard,  R. C. Lochan,  I. Lotan,  
 P. E. Maslen,  N. Nair,  D. P. O'Neill,  D. Neuhauser,  E. Neuscamman,  
 C. M. Oana,  R. Olson,  B. Peters,  R. Peverati,  P. A. Pieniazek,  
 Y. M. Rhee,  J. Ritchie,  M. A. Rohrdanz,  E. Rosta,  N. J. Russ,  
 H. F. Schaefer III,  N. E. Schultz,  N. Shenvi,  A. C. Simmonett,  A. Sodt,  
 D. Stuck,  K. S. Thanthiriwatte,  V. Vanovschi,  Tao Wang,  A. Warshel,  
 C. F. Williams,  Q. Wu,  X. Xu,  W. Zhang

 Please cite Q-Chem as follows:
 Y. Shao et al., Mol. Phys. 113, 184-215 (2015)
 DOI: 10.1080/00268976.2014.952696

 Q-Chem 5.3.0 for Intel X86 EM64T Linux

 Parts of Q-Chem use Armadillo 9.800.1 (Horizon Scraper).
 http://arma.sourceforge.net/

 Q-Chem begins on Sat May 22 08:35:44 2021  

Host: centos77-c1
0

     Scratch files written to /tmp/467993.centos77-h1/qchem83987//
Processing $rem in /opt/qchem-5.3.0-intel2020u1//config/preferences:
Processing $rem in /home/jianyi/.qchemrc:
Requested ECP is DEF2-ECP
Applying user defined connections for MM calculations

Checking the input file for inconsistencies... 	...done.

--------------------------------------------------------------
User input:
--------------------------------------------------------------
$rem
jobtype           SP
exchange          wb97x-d
BASIS             def2-TZVP
ECP               def2-ecp
geom_opt_coords   0
max_scf_cycles    250
QM_MM_INTERFACE   Zeolite
force_field       charmm27
user_connect      TRUE
symmetry           FALSE
sym_ignore        TRUE
print_input       TRUE
qmmm_print        FALSE
THRESH            14
scf_convergence   7
qm_mm             TRUE
mem_total         3600
mem_static        450
AIMD_FIXED_ATOMS  675
geom_opt_dmax     80
pop_mulliken      TRUE
nbo               TRUE
$end

$QM_ATOMS
1
2
3
4
5
6
7
8
9
10
11
12
13
14
15
16
17
18
19
20
21
22
23
$end

$comment
Atom   type   and   names
-1   Oxygen   in   SiO4
-2   Silicon   in   SiO4
-3   H for terminal in SiO4
-4   H hydrolysis
-23  Si right out of T5 and has one connectin to QM
-22  Si right out of T5 and has two connectin to QM
-912   C   in   glucose
-916   O   in   glucose
-901   H   for   HC in glucose
-801   H   for   HO in glucose

!!!no use
-111   CH3   hydrogen
-112   CH2   hydrogen
-121   CH3   carbon
-122   CH2   carbon
-13   O   for   alkoxide   linkage   note:   using   guess   params   for   C-O   single   bond
-15   H   in   dihydrogen
!!!

-54 OGTIP3  TIPS3P WATER OXYGEN
-48 HGTIP3  polar H, TIPS3P WATER HYDROGEN
!!!
-45 CG2O5 adm, acetone, C
-46 OG2D3 amd, acetone, O
-5   Sn, but not test yet
$end


$force_field_params
NumAtomTypes   3000
AtomType   -1   -0.35   1.77   -0.018
AtomType   -13   -0.35   1.77   -0.018
AtomType   -2   0.7   2.2   -0.047
AtomType   -3   -0.175   0.01   0
AtomType   -4    0.175   0.01   0
AtomType   -5    0  3.316 -0.045
AtomType   -23   0.525   2.2   -0.047
AtomType   -22   0.35   2.2   -0.047
AtomType   -21   0.175   2.2   -0.047
AtomType   -45   0.0    2.000   -0.0900
AtomType   -46   0.0    1.700   -0.0500
AtomType    -48 0   0.2245  -0.046
AtomType    -54 0   1.7682     -0.1521
AtomType   -111   0   1.34   -0.024
AtomType   -112   0   1.34   -0.035
AtomType   -121   0   2.05   -0.078
AtomType   -122   0   2.01   -0.056
AtomType   -912   0   2.175   -0.055
AtomType   -916   0   1.77   -0.1521
AtomType   -901   0   1.32   -0.022
AtomType   -801   0   0.2245   -0.046
Bond   -1   -2   304   1.682
Bond   -1   -3   204   1.489
Bond   -2   -3   100   1.45
Angle   -1   -2   -1   34   150
Angle   -2   -1   -2   30   121.5
Angle   -3   -1   -2   44   118
Angle   -1   -2   -3   30   109.5
Torsion   -2   -1   -2   -1   0.1   120   3
Torsion   -2   -1   -2   -3   0.3   120   3
Bond   -121   -122   222.5   1.528
Bond   -121   -121   222.5   1.528
Bond   -122   -122   222.5   1.528
Bond   -111   -121   309   1.089
Bond   -112   -122   309   1.089
Angle   -121   -122   -122   58   115
Angle   -121   -121   -122   58   115
Angle   -121   -121   -121   58   115
Angle   -122   -122   -122   58   115
Angle   -111   -121   -111   35.5   108.4
Angle   -111   -121   -121   35.5   108.4
Angle   -111   -121   -122   35.5   108.4
Angle   -112   -122   -112   35.5   108.4
Angle   -112   -122   -121   35.5   108.4
Angle   -112   -122   -122   35.5   108.4
Torsion   -111   -121   -122   -122   0.16   120   3
Torsion   -111   -121   -121   -121   0.16   120   3
Torsion   -111   -121   -121   -111   0.16   120   3
Torsion   -111   -121   -122   -112   0.16   120   3
Torsion   -112   -122   -122   -122   95.16   180   2
Torsion   -112   -122   -122   -112   95.16   180   2
Torsion   -121   -122   -122   -122   95.16   180   2
Torsion   -121   -122   -122   -112   95.16   180   2
Torsion   -122   -122   -122   -112   95.16   180   2
Torsion   -112   -122   -122   -121   95.16   180   2
Bond   -13   -1   304   1.682
Bond   -13   -121   222.5   1.55
Angle   -13   -121   -121   40   111
Angle   -13   -121   -1   34   150
Angle   -13   -121   -111   35.5   115
Torsion   -1   -13   -121   -121   0.2   120   3
Torsion   -1   -13   -121   -111   0.2   120   3
Bond   -901   -912   342.991   1.093
Bond   -801   -916   560.905   0.972
Bond   -916   -912   363.214   1.418
Bond   -912   -912   306.432   1.508
Angle   -916   -912   -912   71.39   108.133
Angle   -916   -912   -916   83.192   111.368
Angle   -916   -912   -901   56.205   108.577
Angle   -912   -912   -901   45.77   110.549
Angle   -912   -916   -912   86.143   106.926
Angle   -912   -912   -912   61.243   109.608
Angle   -912   -916   -801   57.069   106.503
Angle   -901   -912   -901   37.134   108.836
Torsion   -912   -916   -912   -912   -0.341   0   1
Torsion   -912   -916   -912   -912   0.378   180   2
Torsion   -912   -916   -912   -912   0.378   0   3
Torsion   -912   -916   -912   -901   0.285   0   1
Torsion   -912   -916   -912   -901   0.16   180   2
Torsion   -912   -916   -912   -901   0.285   0   3
Torsion   -912   -912   -912   -912   0.051   0   1
Torsion   -912   -912   -912   -912   0.341   180   2
Torsion   -912   -912   -912   -912   0.166   0   3
Torsion   -912   -912   -912   -916   -0.344   0   1
Torsion   -912   -912   -912   -916   0.878   180   2
Torsion   -912   -912   -912   -916   0.238   0   3
Torsion   -912   -912   -912   -901   0.32   0   1
Torsion   -912   -912   -912   -901   -0.315   180   2
Torsion   -912   -912   -912   -901   0.132   0   3
Torsion   -912   -912   -916   -801   0.135   180   2
Torsion   -912   -912   -916   -801   0.118   0   3
Torsion   -916   -912   -912   -916   0.204   0   1
Torsion   -916   -912   -912   -916   0.699   180   2
Torsion   -916   -912   -912   -916   0.48   0   3
Torsion   -916   -912   -912   -901   -0.327   0   1
Torsion   -916   -912   -912   -901   0.536   180   2
Torsion   -916   -912   -912   -901   0.14   0   3
Torsion   -916   -912   -916   -801   0.744   0   1
Torsion   -916   -912   -916   -801   -1.7   180   2
Torsion   -916   -912   -916   -801   -0.16   0   3
Torsion   -912   -916   -912   -916   0.115   0   1
Torsion   -912   -916   -912   -916   -0.355   180   2
Torsion   -912   -916   -912   -916   0.361   0   3
Torsion   -901   -912   -912   -901   0.142   0   1
Torsion   -901   -912   -912   -901   -0.693   180   2
Torsion   -901   -912   -912   -901   0.157   0   3
Torsion   -901   -912   -916   -801   0.298   0   1
Torsion   -901   -912   -916   -801   -0.138   180   2
Torsion   -901   -912   -916   -801   0.173   0   3
Imptor	-912   -912   -916   -916       0.000  0     0.00
Imptor	-912   -916   -916   -901     0.000  0     0.00
Imptor	-912   -912   -916   -912       0.000  0     0.00
Imptor	-912   -912   -916   -901     0.000  0     0.00
Imptor	-912   -912   -912   -916       0.000  0     0.00
Imptor	-912   -912   -912   -901     0.000  0     0.00
Imptor	-912   -916   -912   -901     0.000  0     0.00
$end

$opt
FIXED
24 XYZ
25 XYZ
26 XYZ
27 XYZ
28 XYZ
29 XYZ
30 XYZ
31 XYZ
32 XYZ
33 XYZ
34 XYZ
35 XYZ
36 XYZ
37 XYZ
38 XYZ
39 XYZ
40 XYZ
41 XYZ
42 XYZ
43 XYZ
44 XYZ
45 XYZ
46 XYZ
47 XYZ
48 XYZ
49 XYZ
50 XYZ
51 XYZ
52 XYZ
53 XYZ
54 XYZ
55 XYZ
56 XYZ
57 XYZ
58 XYZ
59 XYZ
60 XYZ
61 XYZ
62 XYZ
63 XYZ
64 XYZ
65 XYZ
66 XYZ
67 XYZ
68 XYZ
69 XYZ
70 XYZ
71 XYZ
72 XYZ
73 XYZ
74 XYZ
75 XYZ
76 XYZ
77 XYZ
78 XYZ
79 XYZ
80 XYZ
81 XYZ
82 XYZ
83 XYZ
84 XYZ
85 XYZ
86 XYZ
87 XYZ
88 XYZ
89 XYZ
90 XYZ
91 XYZ
92 XYZ
93 XYZ
94 XYZ
95 XYZ
96 XYZ
97 XYZ
98 XYZ
99 XYZ
100 XYZ
101 XYZ
102 XYZ
103 XYZ
104 XYZ
105 XYZ
106 XYZ
107 XYZ
108 XYZ
109 XYZ
110 XYZ
111 XYZ
112 XYZ
113 XYZ
114 XYZ
115 XYZ
116 XYZ
117 XYZ
118 XYZ
119 XYZ
120 XYZ
121 XYZ
122 XYZ
123 XYZ
124 XYZ
125 XYZ
126 XYZ
127 XYZ
128 XYZ
129 XYZ
130 XYZ
131 XYZ
132 XYZ
133 XYZ
134 XYZ
135 XYZ
136 XYZ
137 XYZ
138 XYZ
139 XYZ
140 XYZ
141 XYZ
142 XYZ
143 XYZ
144 XYZ
145 XYZ
146 XYZ
147 XYZ
148 XYZ
149 XYZ
150 XYZ
151 XYZ
152 XYZ
153 XYZ
154 XYZ
155 XYZ
156 XYZ
157 XYZ
158 XYZ
159 XYZ
160 XYZ
161 XYZ
162 XYZ
163 XYZ
164 XYZ
165 XYZ
166 XYZ
167 XYZ
168 XYZ
169 XYZ
170 XYZ
171 XYZ
172 XYZ
173 XYZ
174 XYZ
175 XYZ
176 XYZ
177 XYZ
178 XYZ
179 XYZ
180 XYZ
181 XYZ
182 XYZ
183 XYZ
184 XYZ
185 XYZ
186 XYZ
187 XYZ
188 XYZ
189 XYZ
190 XYZ
191 XYZ
192 XYZ
193 XYZ
194 XYZ
195 XYZ
196 XYZ
197 XYZ
198 XYZ
199 XYZ
200 XYZ
201 XYZ
202 XYZ
203 XYZ
204 XYZ
205 XYZ
206 XYZ
207 XYZ
208 XYZ
209 XYZ
210 XYZ
211 XYZ
212 XYZ
213 XYZ
214 XYZ
215 XYZ
216 XYZ
217 XYZ
218 XYZ
219 XYZ
220 XYZ
221 XYZ
222 XYZ
223 XYZ
224 XYZ
225 XYZ
226 XYZ
227 XYZ
228 XYZ
229 XYZ
230 XYZ
231 XYZ
232 XYZ
233 XYZ
234 XYZ
235 XYZ
236 XYZ
237 XYZ
238 XYZ
239 XYZ
240 XYZ
241 XYZ
242 XYZ
243 XYZ
244 XYZ
245 XYZ
246 XYZ
247 XYZ
248 XYZ
249 XYZ
250 XYZ
251 XYZ
252 XYZ
253 XYZ
254 XYZ
255 XYZ
256 XYZ
257 XYZ
258 XYZ
259 XYZ
260 XYZ
261 XYZ
262 XYZ
263 XYZ
264 XYZ
265 XYZ
266 XYZ
267 XYZ
268 XYZ
269 XYZ
270 XYZ
271 XYZ
272 XYZ
273 XYZ
274 XYZ
275 XYZ
276 XYZ
277 XYZ
278 XYZ
279 XYZ
280 XYZ
281 XYZ
282 XYZ
283 XYZ
284 XYZ
285 XYZ
286 XYZ
287 XYZ
288 XYZ
289 XYZ
290 XYZ
291 XYZ
292 XYZ
293 XYZ
294 XYZ
295 XYZ
296 XYZ
297 XYZ
298 XYZ
299 XYZ
300 XYZ
301 XYZ
302 XYZ
303 XYZ
304 XYZ
305 XYZ
306 XYZ
307 XYZ
308 XYZ
309 XYZ
310 XYZ
311 XYZ
312 XYZ
313 XYZ
314 XYZ
315 XYZ
316 XYZ
317 XYZ
318 XYZ
319 XYZ
320 XYZ
321 XYZ
322 XYZ
323 XYZ
324 XYZ
325 XYZ
326 XYZ
327 XYZ
328 XYZ
329 XYZ
330 XYZ
331 XYZ
332 XYZ
333 XYZ
334 XYZ
335 XYZ
336 XYZ
337 XYZ
338 XYZ
339 XYZ
340 XYZ
341 XYZ
342 XYZ
343 XYZ
344 XYZ
345 XYZ
346 XYZ
347 XYZ
348 XYZ
349 XYZ
350 XYZ
351 XYZ
352 XYZ
353 XYZ
354 XYZ
355 XYZ
356 XYZ
357 XYZ
358 XYZ
359 XYZ
360 XYZ
361 XYZ
362 XYZ
363 XYZ
364 XYZ
365 XYZ
366 XYZ
367 XYZ
368 XYZ
369 XYZ
370 XYZ
371 XYZ
372 XYZ
373 XYZ
374 XYZ
375 XYZ
376 XYZ
377 XYZ
378 XYZ
379 XYZ
380 XYZ
381 XYZ
382 XYZ
383 XYZ
384 XYZ
385 XYZ
386 XYZ
387 XYZ
388 XYZ
389 XYZ
390 XYZ
391 XYZ
392 XYZ
393 XYZ
394 XYZ
395 XYZ
396 XYZ
397 XYZ
398 XYZ
399 XYZ
400 XYZ
401 XYZ
402 XYZ
403 XYZ
404 XYZ
405 XYZ
406 XYZ
407 XYZ
408 XYZ
409 XYZ
410 XYZ
411 XYZ
412 XYZ
413 XYZ
414 XYZ
415 XYZ
416 XYZ
417 XYZ
418 XYZ
419 XYZ
420 XYZ
421 XYZ
422 XYZ
423 XYZ
424 XYZ
425 XYZ
426 XYZ
427 XYZ
428 XYZ
429 XYZ
430 XYZ
431 XYZ
432 XYZ
433 XYZ
434 XYZ
435 XYZ
436 XYZ
437 XYZ
438 XYZ
439 XYZ
440 XYZ
441 XYZ
442 XYZ
443 XYZ
444 XYZ
445 XYZ
446 XYZ
447 XYZ
448 XYZ
449 XYZ
450 XYZ
451 XYZ
452 XYZ
453 XYZ
454 XYZ
455 XYZ
456 XYZ
457 XYZ
458 XYZ
459 XYZ
460 XYZ
461 XYZ
462 XYZ
463 XYZ
464 XYZ
465 XYZ
466 XYZ
467 XYZ
468 XYZ
469 XYZ
470 XYZ
471 XYZ
472 XYZ
473 XYZ
474 XYZ
475 XYZ
476 XYZ
477 XYZ
478 XYZ
479 XYZ
480 XYZ
481 XYZ
482 XYZ
483 XYZ
484 XYZ
485 XYZ
486 XYZ
487 XYZ
488 XYZ
489 XYZ
490 XYZ
491 XYZ
492 XYZ
493 XYZ
494 XYZ
495 XYZ
496 XYZ
497 XYZ
498 XYZ
499 XYZ
500 XYZ
501 XYZ
502 XYZ
503 XYZ
504 XYZ
505 XYZ
506 XYZ
507 XYZ
508 XYZ
509 XYZ
510 XYZ
511 XYZ
512 XYZ
513 XYZ
514 XYZ
515 XYZ
516 XYZ
517 XYZ
518 XYZ
519 XYZ
520 XYZ
521 XYZ
522 XYZ
523 XYZ
524 XYZ
525 XYZ
526 XYZ
527 XYZ
528 XYZ
529 XYZ
530 XYZ
531 XYZ
532 XYZ
533 XYZ
534 XYZ
535 XYZ
536 XYZ
537 XYZ
538 XYZ
539 XYZ
540 XYZ
541 XYZ
542 XYZ
543 XYZ
544 XYZ
545 XYZ
546 XYZ
547 XYZ
548 XYZ
549 XYZ
550 XYZ
551 XYZ
552 XYZ
553 XYZ
554 XYZ
555 XYZ
556 XYZ
557 XYZ
558 XYZ
559 XYZ
560 XYZ
561 XYZ
562 XYZ
563 XYZ
564 XYZ
565 XYZ
566 XYZ
567 XYZ
568 XYZ
569 XYZ
570 XYZ
571 XYZ
572 XYZ
573 XYZ
574 XYZ
575 XYZ
576 XYZ
577 XYZ
578 XYZ
579 XYZ
580 XYZ
581 XYZ
582 XYZ
583 XYZ
584 XYZ
585 XYZ
586 XYZ
587 XYZ
588 XYZ
589 XYZ
590 XYZ
591 XYZ
592 XYZ
593 XYZ
594 XYZ
595 XYZ
596 XYZ
597 XYZ
598 XYZ
599 XYZ
600 XYZ
601 XYZ
602 XYZ
603 XYZ
604 XYZ
605 XYZ
606 XYZ
607 XYZ
608 XYZ
609 XYZ
610 XYZ
611 XYZ
612 XYZ
613 XYZ
614 XYZ
615 XYZ
616 XYZ
617 XYZ
618 XYZ
619 XYZ
620 XYZ
621 XYZ
622 XYZ
623 XYZ
624 XYZ
625 XYZ
626 XYZ
627 XYZ
628 XYZ
629 XYZ
630 XYZ
631 XYZ
632 XYZ
633 XYZ
634 XYZ
635 XYZ
636 XYZ
637 XYZ
638 XYZ
639 XYZ
640 XYZ
641 XYZ
642 XYZ
643 XYZ
644 XYZ
645 XYZ
646 XYZ
647 XYZ
648 XYZ
649 XYZ
650 XYZ
651 XYZ
652 XYZ
653 XYZ
654 XYZ
655 XYZ
656 XYZ
657 XYZ
658 XYZ
659 XYZ
660 XYZ
661 XYZ
662 XYZ
663 XYZ
664 XYZ
665 XYZ
666 XYZ
667 XYZ
668 XYZ
669 XYZ
670 XYZ
671 XYZ
672 XYZ
673 XYZ
674 XYZ
675 XYZ
676 XYZ
677 XYZ
678 XYZ
679 XYZ
680 XYZ
681 XYZ
682 XYZ
683 XYZ
684 XYZ
685 XYZ
686 XYZ
687 XYZ
688 XYZ
689 XYZ
690 XYZ
691 XYZ
692 XYZ
693 XYZ
694 XYZ
695 XYZ
696 XYZ
697 XYZ
698 XYZ
endfixed
$end

$MOLECULE
0 1
C  2.519488079  -0.1901378169  0.7411550718 	 -121	0	0	0	0
C  1.1358216154  0.1873593616  0.247671703 	 -45	0	0	0	0
O  0.5755156065  -0.7815772589  -0.6197409526 	 -46	0	0	0	0
C  0.1562667818  0.4120293174  1.3854534192 	 -122	0	0	0	0
O  -0.9412803937  -0.0776655615  1.3578200222 	 -916	0	0	0	0
H  2.4817919501  -1.1330306119  1.3026245265 	 -111	0	0	0	0
H  2.9026137333  0.6005323197  1.4019360137 	 -111	0	0	0	0
H  3.2148921094  -0.2870472829  -0.1028261189 	 -111	0	0	0	0
H  1.1984948465  1.15072791  -0.2968540618 	 -112	0	0	0	0
H  0.494217739  1.0671593601  2.2208489017 	 -112	0	0	0	0
H  -0.3923867669  -0.7559593391  -0.4737707896 	 -801	0	0	0	0
Sn  0.6180710684  -3.1878212669  -0.7486013621 	 0	13	14	15	17
O  0.6320372875  -5.116678559  -1.0993747066 	 0	12	22	0	0
O  0.9020623698  -3.0970931986  1.1493212501 	 0	12	20	0	0
O  -1.2153160411  -2.7113847825  -1.0558951252 	 0	12	21	0	0
O  2.6318521967  -2.8393873382  -0.8872471734 	 0	23	0	0	0
O  1.0583136975  -2.7932803878  -2.7258556117 	 0	12	0	0	0
H  3.3077067506  -2.89145322  -0.1938204128 	 0	0	0	0	0
H  0.8379652862  -3.558723311  -3.2801097689 	 0	0	0	0	0
Si  -0.0602221392  -3.5304621541  2.3899022536 	 0	14	95	98	99
Si  -1.9243087845  -2.6225085952  -2.5381787073 	 0	15	194	200	368
Si  0.6212116176  -6.7043387025  -0.7521043457 	 0	13	374	375	376
Si  3.0399890629  -2.6399248068  -2.5931185064 	 0	16	197	202	381
Si	3.042760000	-11.148170000	-9.144810000	-2	555	525	639	640
Si	-7.237080000	0.703520000	-10.905100000	-2	31	32	30	641
Si	-7.236260000	-2.490480000	-10.902280000	-2	30	33	34	642
Si	-4.226100000	0.711350000	-10.989990000	-2	36	31	35	614
Si	-4.225290000	-2.494650000	-10.990170000	-2	35	33	37	615
Si	-9.618510000	1.513560000	-9.140340000	-2	530	566	32	643
O	-7.206100000	-0.893500000	-10.658200000	-1	25	26	0	0
O	-5.731030000	1.286430000	-10.852510000	-1	25	27	0	0
O	-8.127700000	1.409500000	-9.756790000	-1	25	29	0	0
O	-5.729280000	-3.070570000	-10.849760000	-1	26	28	0	0
O	-8.125960000	-3.194500000	-9.751050000	-1	26	591	0	0
O	-4.242140000	-0.891660000	-10.788070000	-1	27	28	0	0
O	-3.286730000	1.388230000	-9.863230000	-1	27	592	0	0
O	-3.282990000	-3.170770000	-9.864490000	-1	28	540	0	0
Si	0.618900000	0.700070000	-10.974430000	-2	47	48	45	46
Si	0.620720000	-2.496930000	-10.978610000	-2	45	50	51	49
Si	5.423920000	0.702790000	-10.908850000	-2	54	53	52	312
Si	5.424740000	-2.491210000	-10.906030000	-2	52	55	56	313
Si	8.434900000	0.710630000	-10.993740000	-2	53	58	57	644
Si	8.435710000	-2.495370000	-10.993930000	-2	55	57	59	645
Si	3.043490000	1.512830000	-9.144100000	-2	546	586	48	54
O	0.609880000	-0.898940000	-10.738510000	-1	38	39	0	0
O	0.588450000	1.011160000	-12.560400000	-1	38	308	0	0
O	-0.679850000	1.356110000	-10.272000000	-1	38	592	0	0
O	1.958130000	1.332960000	-10.327790000	-1	38	44	0	0
O	0.588230000	-2.802840000	-12.564610000	-1	39	309	0	0
O	-0.676110000	-3.155890000	-10.276260000	-1	39	540	0	0
O	1.961870000	-3.129040000	-10.335040000	-1	39	593	0	0
O	5.454900000	-0.894220000	-10.661950000	-1	40	41	0	0
O	6.930970000	1.285700000	-10.856260000	-1	40	42	0	0
O	4.533300000	1.408780000	-9.760550000	-1	40	44	0	0
O	6.932720000	-3.071300000	-10.853510000	-1	41	43	0	0
O	4.535040000	-3.195220000	-9.754810000	-1	41	593	0	0
O	8.419860000	-0.892380000	-10.791830000	-1	42	43	0	0
O	9.374270000	1.387510000	-9.866980000	-1	42	594	0	0
O	9.378010000	-3.171490000	-9.868240000	-1	43	558	0	0
H	-3.166250000	9.475220000	-9.807810000	-3	573	0	0	0
H	-0.768360000	9.488110000	-10.187520000	-3	573	0	0	0
H	2.048620000	9.513950000	-10.240350000	-3	595	0	0	0
H	4.416780000	9.452780000	-9.706060000	-3	595	0	0	0
H	0.544240000	0.984680000	13.730610000	-3	325	0	0	0
H	0.544030000	-2.779320000	13.725400000	-3	326	0	0	0
Si	-7.909610000	-6.714190000	2.230680000	-2	74	73	71	72
Si	-7.912430000	-3.517190000	2.227870000	-2	71	77	76	75
Si	-12.715590000	-6.716910000	2.299110000	-2	79	646	78	356
Si	-12.716400000	-3.522910000	2.302290000	-2	78	81	80	358
Si	-10.333110000	-7.527150000	4.062360000	-2	79	74	465	441
O	-7.900450000	-5.115200000	2.467770000	-1	66	67	0	0
O	-7.880100000	-7.025100000	0.645660000	-1	66	350	0	0
O	-6.610440000	-7.370300000	2.932260000	-1	66	596	0	0
O	-9.248450000	-7.347150000	2.878050000	-1	66	70	0	0
O	-7.879880000	-3.211100000	0.640870000	-1	67	351	0	0
O	-6.614180000	-2.858300000	2.928520000	-1	67	459	0	0
O	-9.252200000	-2.885140000	2.871300000	-1	67	597	0	0
O	-12.746420000	-5.119930000	2.546210000	-1	68	69	0	0
O	-11.824290000	-7.422030000	3.446810000	-1	68	70	0	0
H	-14.102360000	-2.987840000	2.351730000	-3	69	0	0	0
O	-11.826020000	-2.819030000	3.453070000	-1	69	597	0	0
Si	4.751390000	-6.714910000	2.226930000	-2	91	90	88	89
Si	4.749570000	-3.517910000	2.224110000	-2	88	94	93	92
Si	-0.053590000	-6.717640000	2.295350000	-22	96	97	95	374
Si	-3.064610000	-6.725460000	2.212250000	-2	101	96	100	618
Si	-3.065430000	-3.518460000	2.212430000	-23	100	102	98	619
Si	2.327890000	-7.527880000	4.058600000	-2	97	91	487	452
O	4.760550000	-5.115920000	2.464020000	-1	82	83	0	0
O	4.780900000	-7.025820000	0.641900000	-1	82	369	0	0
O	6.050560000	-7.371020000	2.928510000	-1	82	598	0	0
O	3.412550000	-7.347870000	2.874290000	-1	82	87	0	0
O	4.781120000	-3.211820000	0.637120000	-1	83	370	0	0
O	6.046820000	-2.859020000	2.924760000	-1	83	481	0	0
O	3.408800000	-2.885870000	2.867540000	-1	83	599	0	0
O	-0.084420000	-5.120650000	2.542450000	-1	84	20	0	0
O	-1.560610000	-7.299560000	2.348770000	-1	84	85	0	0
O	0.837710000	-7.422760000	3.443050000	-1	84	87	0	0
O	-1.562360000	-2.942560000	2.352020000	-1	20	86	0	0
O	0.834980000	-2.819760000	3.449310000	-1	20	599	0	0
O	-3.049460000	-5.122470000	2.414330000	-1	85	86	0	0
O	-4.003320000	-7.401470000	3.339490000	-1	85	596	0	0
O	-4.007060000	-2.843470000	3.339750000	-1	86	459	0	0
Si	12.607410000	-6.718360000	2.291600000	-2	647	108	107	388
Si	12.606590000	-3.524360000	2.294780000	-2	107	110	109	390
Si	9.596390000	-6.726190000	2.208490000	-2	108	112	111	620
Si	9.595570000	-3.519190000	2.208670000	-2	111	109	113	621
O	12.576580000	-5.121380000	2.538700000	-1	103	104	0	0
O	11.101390000	-7.300280000	2.345010000	-1	103	105	0	0
O	11.099640000	-2.943280000	2.348260000	-1	104	106	0	0
H	13.425950000	-2.876470000	3.353570000	-3	104	0	0	0
O	9.612540000	-5.123200000	2.410580000	-1	105	106	0	0
O	8.657680000	-7.402200000	3.335730000	-1	105	598	0	0
O	8.653940000	-2.844200000	3.335990000	-1	106	481	0	0
Si	-7.908880000	5.947810000	2.231400000	-2	118	121	120	119
Si	-7.911700000	9.143810000	2.228580000	-2	124	123	118	122
Si	-12.714860000	5.945090000	2.299830000	-2	648	125	649	400
Si	-10.332390000	5.133850000	4.063070000	-2	125	121	505	474
O	-7.899720000	7.545800000	2.468490000	-1	114	115	0	0
O	-7.879370000	5.636900000	0.646370000	-1	114	394	0	0
O	-6.609710000	5.291700000	2.932980000	-1	114	600	0	0
O	-9.247730000	5.314850000	2.878760000	-1	114	117	0	0
O	-7.879150000	9.449900000	0.641590000	-1	115	395	0	0
O	-6.613450000	9.803700000	2.929230000	-1	115	499	0	0
H	-9.144490000	9.724850000	2.820980000	-3	115	0	0	0
O	-11.823560000	5.238970000	3.447520000	-1	116	117	0	0
Si	4.752120000	5.947090000	2.227650000	-2	133	136	135	134
Si	4.750300000	9.143090000	2.224830000	-2	139	138	133	137
Si	-0.052860000	5.944360000	2.296070000	-2	140	141	142	419
Si	-0.053680000	9.137360000	2.299250000	-2	143	144	140	422
Si	-3.063890000	5.936540000	2.212960000	-2	145	146	141	622
Si	-3.064700000	9.142540000	2.213140000	-2	147	143	145	623
Si	2.328610000	5.133120000	4.059320000	-2	142	136	517	496
O	4.761280000	7.545080000	2.464730000	-1	126	127	0	0
O	4.781630000	5.636180000	0.642620000	-1	126	413	0	0
O	6.051290000	5.290980000	2.929220000	-1	126	601	0	0
O	3.413270000	5.314130000	2.875010000	-1	126	132	0	0
O	4.781850000	9.449180000	0.637830000	-1	127	414	0	0
O	6.047540000	9.802980000	2.925480000	-1	127	511	0	0
O	3.409530000	9.775130000	2.868260000	-1	127	602	0	0
O	-0.083700000	7.540350000	2.543170000	-1	128	129	0	0
O	-1.559880000	5.361440000	2.349480000	-1	128	130	0	0
O	0.838440000	5.238240000	3.443770000	-1	128	132	0	0
O	-1.561630000	9.718440000	2.352730000	-1	129	131	0	0
O	0.835700000	9.841240000	3.450030000	-1	129	602	0	0
O	-3.048740000	7.539530000	2.415050000	-1	130	131	0	0
O	-4.002590000	5.259530000	3.340200000	-1	130	600	0	0
O	-4.006330000	9.817530000	3.340460000	-1	131	499	0	0
Si	12.608140000	5.943640000	2.292310000	-2	151	153	152	434
Si	9.597110000	5.935810000	2.209210000	-2	152	155	156	624
Si	9.596290000	9.141810000	2.209390000	-2	154	157	155	625
H	12.579290000	7.411620000	2.519410000	-3	148	0	0	0
O	11.102120000	5.360720000	2.345730000	-1	148	149	0	0
H	13.428410000	5.293530000	3.348030000	-3	148	0	0	0
H	10.980360000	9.671730000	2.338010000	-3	150	0	0	0
O	9.613260000	7.538800000	2.411290000	-1	149	150	0	0
O	8.658410000	5.258800000	3.336450000	-1	149	601	0	0
O	8.654670000	9.816800000	3.336710000	-1	150	511	0	0
H	-9.796340000	-8.857770000	-3.204880000	-3	354	0	0	0
Si	-1.024900000	-12.927210000	-4.306710000	-2	163	164	522	165
Si	2.168100000	-12.926390000	-4.304660000	-2	166	524	163	167
Si	-1.032750000	-9.917210000	-4.389540000	-2	168	626	164	169
Si	2.173250000	-9.916390000	-4.390490000	-2	627	168	166	170
O	0.571170000	-12.897320000	-4.059180000	-1	159	160	0	0
O	-1.607800000	-11.421180000	-4.252450000	-1	159	161	0	0
H	-1.674640000	-13.748230000	-3.249560000	-3	159	0	0	0
O	2.749200000	-11.419430000	-4.251740000	-1	160	162	0	0
H	2.816370000	-13.745490000	-3.245890000	-3	160	0	0	0
O	0.570300000	-9.932310000	-4.188010000	-1	161	162	0	0
O	-1.709370000	-8.978230000	-3.262280000	-1	161	604	0	0
O	2.848630000	-8.974490000	-3.264630000	-1	162	373	0	0
H	10.941660000	-8.862960000	-3.210030000	-3	605	0	0	0
Si	-10.486470000	-5.068660000	-4.373460000	-2	176	177	179	178
Si	-13.686180000	-0.265490000	-4.302240000	-2	650	180	651	652
Si	-10.492180000	-0.264670000	-4.300180000	-2	180	181	529	182
Si	-10.487030000	2.746340000	-4.386020000	-2	183	628	181	184
H	-11.956410000	-5.078590000	-4.152020000	-3	172	0	0	0
O	-10.180940000	-5.101590000	-5.960550000	-1	172	527	0	0
O	-9.827340000	-6.366740000	-3.671730000	-1	172	354	0	0
O	-9.854200000	-3.727740000	-3.730570000	-1	172	603	0	0
O	-12.089100000	-0.234590000	-4.054710000	-1	173	174	0	0
O	-9.911070000	1.242300000	-4.247270000	-1	174	175	0	0
O	-9.787880000	-1.154770000	-3.149440000	-1	174	603	0	0
H	-11.962970000	2.730410000	-4.199580000	-3	175	0	0	0
O	-9.811640000	3.688230000	-3.260160000	-1	175	398	0	0
Si	-1.021470000	-5.071210000	-4.373270000	-23	191	192	194	193
Si	2.174530000	-5.069390000	-4.377210000	-23	195	191	197	196
Si	-1.024180000	-0.266210000	-4.305990000	-23	198	199	542	200
Si	2.168820000	-0.265390000	-4.303940000	-23	201	198	545	202
Si	-1.032030000	2.744790000	-4.388820000	-2	203	629	199	204
Si	2.173970000	2.745610000	-4.389770000	-2	630	203	201	205
O	0.576600000	-5.080310000	-4.136740000	-1	185	186	0	0
O	-1.332940000	-5.102100000	-5.958180000	-1	185	536	0	0
O	-1.677340000	-6.371210000	-3.670140000	-1	185	604	0	0
O	-1.654200000	-3.733210000	-3.726000000	-1	185	21	0	0
O	2.480050000	-5.102320000	-5.964310000	-1	186	537	0	0
O	2.834660000	-6.367470000	-3.675480000	-1	186	373	0	0
O	2.806790000	-3.728460000	-3.734330000	-1	186	23	0	0
O	0.571900000	-0.235320000	-4.058460000	-1	187	188	0	0
O	-1.607070000	1.239820000	-4.251740000	-1	187	189	0	0
O	-1.729890000	-1.157230000	-3.156830000	-1	187	21	0	0
O	2.749930000	1.241570000	-4.251030000	-1	188	190	0	0
O	2.873110000	-1.155500000	-3.153200000	-1	188	23	0	0
O	0.571030000	2.728690000	-4.187300000	-1	189	190	0	0
O	-1.708640000	3.683770000	-3.261570000	-1	189	607	0	0
O	2.849360000	3.687510000	-3.263920000	-1	190	417	0	0
Si	11.639530000	-5.071930000	-4.377020000	-2	210	211	213	212
Si	11.636820000	-0.266940000	-4.309750000	-2	214	215	559	216
Si	11.628970000	2.744070000	-4.392580000	-2	217	631	215	218
Si	10.826210000	-2.648990000	-2.545640000	-2	216	384	391	213
H	13.109590000	-5.080030000	-4.159460000	-3	206	0	0	0
O	11.328060000	-5.102820000	-5.961930000	-1	206	557	0	0
O	10.983660000	-6.371930000	-3.673900000	-1	206	605	0	0
O	11.006800000	-3.733930000	-3.729760000	-1	206	209	0	0
H	13.105890000	-0.238030000	-4.082180000	-3	207	0	0	0
O	11.053920000	1.239090000	-4.255490000	-1	207	208	0	0
O	10.931110000	-1.157960000	-3.160590000	-1	207	209	0	0
H	13.104020000	2.728970000	-4.207010000	-3	208	0	0	0
O	10.952360000	3.683040000	-3.265320000	-1	208	609	0	0
Si	-10.485750000	7.592340000	-4.372740000	-2	653	220	222	221
H	-10.204180000	7.563400000	-5.832830000	-3	219	0	0	0
O	-9.826610000	6.295260000	-3.671010000	-1	219	398	0	0
O	-9.853480000	8.933260000	-3.729850000	-1	219	606	0	0
Si	-1.020750000	7.589790000	-4.372550000	-2	228	229	231	230
Si	2.175250000	7.591610000	-4.376500000	-2	232	228	234	233
Si	-1.023450000	12.394790000	-4.305280000	-2	235	575	654	236
Si	2.169550000	12.395610000	-4.303220000	-2	577	235	655	237
Si	-1.834060000	10.013740000	-2.541170000	-2	231	423	410	236
O	0.577320000	7.580690000	-4.136020000	-1	223	224	0	0
O	-1.332220000	7.559900000	-5.957460000	-1	223	569	0	0
O	-1.676610000	6.290790000	-3.669430000	-1	223	607	0	0
O	-1.653480000	8.928790000	-3.725290000	-1	223	227	0	0
O	2.480780000	7.559680000	-5.963590000	-1	224	570	0	0
O	2.835390000	6.294530000	-3.674770000	-1	224	417	0	0
O	2.807520000	8.932540000	-3.733610000	-1	224	608	0	0
O	0.572620000	12.425680000	-4.057750000	-1	225	226	0	0
O	-1.729160000	11.503760000	-3.156120000	-1	225	227	0	0
O	2.873840000	11.505500000	-3.152480000	-1	226	608	0	0
Si	11.640250000	7.589070000	-4.376310000	-2	656	240	242	241
Si	10.826930000	10.013010000	-2.544930000	-2	242	432	657	658
H	11.353820000	7.561170000	-5.834220000	-3	238	0	0	0
O	10.984390000	6.290070000	-3.673180000	-1	238	609	0	0
O	11.007520000	8.928070000	-3.729040000	-1	238	239	0	0
Si	-6.265320000	-0.942650000	8.831520000	-2	250	252	249	251
Si	-9.462320000	-0.945470000	8.829470000	-2	249	253	255	254
Si	-6.262570000	-5.748660000	8.898250000	-2	461	256	257	258
Si	-9.456570000	-5.749470000	8.902200000	-2	256	464	659	660
Si	-6.254770000	-8.758650000	8.815080000	-2	632	259	257	260
Si	-5.451920000	-3.366800000	10.662140000	-2	258	344	322	252
O	-7.864250000	-0.933570000	9.069000000	-1	243	244	0	0
O	-5.954790000	-0.912580000	7.246430000	-1	243	455	0	0
O	-5.609040000	0.356270000	9.534400000	-1	243	610	0	0
O	-5.632200000	-2.281730000	9.478260000	-1	243	248	0	0
O	-9.768790000	-0.912360000	7.243560000	-1	244	456	0	0
H	-10.068060000	0.248530000	9.475720000	-3	244	0	0	0
H	-10.043210000	-2.178470000	9.421570000	-3	244	0	0	0
O	-7.859500000	-5.779580000	9.146720000	-1	245	246	0	0
O	-5.679650000	-7.254690000	8.951990000	-1	245	247	0	0
O	-5.556180000	-4.857760000	10.047090000	-1	245	248	0	0
H	-7.729720000	-8.744580000	9.001520000	-3	247	0	0	0
H	-5.631510000	-9.623750000	9.851840000	-3	247	0	0	0
Si	6.395680000	-0.943380000	8.827770000	-2	269	271	268	270
Si	3.199680000	-0.946190000	8.825720000	-2	272	274	268	273
Si	6.398420000	-5.749380000	8.894500000	-2	483	275	276	277
Si	3.205430000	-5.750200000	8.898440000	-2	486	275	278	279
Si	6.406230000	-8.759380000	8.811320000	-2	633	280	276	661
Si	3.200230000	-8.760190000	8.812270000	-2	634	280	278	281
Si	7.210080000	-3.367530000	10.658390000	-2	277	346	335	271
O	4.797750000	-0.934300000	9.065240000	-1	261	262	0	0
O	6.706210000	-0.913310000	7.242680000	-1	261	477	0	0
O	7.051960000	0.355540000	9.530650000	-1	261	611	0	0
O	7.028790000	-2.282450000	9.474500000	-1	261	267	0	0
O	2.893210000	-0.913090000	7.239810000	-1	262	478	0	0
O	2.539960000	0.351800000	9.527980000	-1	262	329	0	0
O	2.567790000	-2.286200000	9.469830000	-1	262	612	0	0
O	4.802500000	-5.780300000	9.142970000	-1	263	264	0	0
O	6.981350000	-7.255420000	8.948240000	-1	263	265	0	0
O	7.104820000	-4.858490000	10.043340000	-1	263	267	0	0
O	2.624350000	-7.257170000	8.951530000	-1	264	266	0	0
O	2.501820000	-4.860220000	10.049700000	-1	264	612	0	0
O	4.803290000	-8.744300000	9.013800000	-1	265	266	0	0
H	2.579490000	-9.627220000	9.848410000	-3	266	0	0	0
Si	-6.261850000	6.913340000	8.898970000	-2	287	501	286	288
Si	-9.455850000	6.912530000	8.902910000	-2	286	289	504	662
Si	-6.254050000	3.902350000	8.815790000	-2	635	290	287	291
Si	-9.460050000	3.901530000	8.816740000	-2	290	636	289	292
O	-7.858780000	6.882420000	9.147440000	-1	282	283	0	0
O	-5.678920000	5.406310000	8.952710000	-1	282	284	0	0
H	-5.611490000	7.733250000	9.955820000	-3	282	0	0	0
O	-10.035920000	5.404560000	8.956000000	-1	283	285	0	0
O	-7.856990000	3.917430000	9.018270000	-1	284	285	0	0
O	-5.576770000	2.963240000	9.942540000	-1	284	610	0	0
H	-10.081790000	3.034510000	9.852880000	-3	285	0	0	0
Si	6.399150000	6.912620000	8.895210000	-2	300	513	299	301
Si	3.206150000	6.911800000	8.899160000	-2	302	516	299	303
Si	6.406950000	3.901620000	8.812040000	-2	637	304	300	305
Si	3.200950000	3.900810000	8.812990000	-2	638	304	302	306
H	2.918900000	11.799920000	7.124520000	-3	510	0	0	0
H	2.549540000	10.288800000	9.564540000	-3	613	0	0	0
O	4.803220000	6.881700000	9.143680000	-1	293	294	0	0
O	6.982080000	5.405580000	8.948950000	-1	293	295	0	0
H	7.049510000	7.732520000	9.952060000	-3	293	0	0	0
O	2.625080000	5.403830000	8.952250000	-1	294	296	0	0
O	2.502540000	7.800780000	10.050420000	-1	294	613	0	0
O	4.804010000	3.916700000	9.014510000	-1	295	296	0	0
O	7.084230000	2.962520000	9.938780000	-1	295	611	0	0
O	2.526230000	2.958780000	9.939140000	-1	296	329	0	0
Si	4.747020000	0.700000000	-13.943650000	-2	312	663	664	665
Si	-0.058000000	0.703280000	-14.008230000	-2	46	315	314	666
Si	-0.059180000	-2.490720000	-14.012410000	-2	49	314	316	667
Si	-3.068970000	0.711450000	-13.924330000	-2	614	315	317	668
Si	-3.070160000	-2.494550000	-13.924510000	-2	317	615	316	669
O	4.777510000	1.010910000	-12.357640000	-1	40	307	0	0
H	4.829330000	-2.778100000	-12.237870000	-3	41	0	0	0
O	-0.089160000	-0.893700000	-14.256310000	-1	308	309	0	0
O	-1.564980000	1.286370000	-14.061750000	-1	308	310	0	0
O	-1.567230000	-3.070630000	-14.063990000	-1	309	311	0	0
O	-3.054130000	-0.891540000	-14.126430000	-1	310	311	0	0
Si	-7.906150000	0.699240000	12.466100000	-2	670	671	321	320
Si	-7.909330000	-2.497760000	12.469920000	-2	672	320	673	322
O	-7.897310000	-0.899750000	12.230010000	-1	318	319	0	0
O	-6.607320000	1.355200000	11.763750000	-1	318	610	0	0
O	-6.611580000	-3.156800000	11.767500000	-1	248	319	0	0
Si	4.754850000	0.698510000	12.462350000	-2	331	333	332	330
Si	4.752670000	-2.498490000	12.466170000	-2	334	330	336	335
Si	-0.050170000	0.701790000	12.397770000	-2	64	338	339	337
Si	-0.051350000	-2.492210000	12.394590000	-2	65	340	337	341
Si	-3.061140000	0.709960000	12.481670000	-2	616	338	342	343
Si	-3.062330000	-2.496040000	12.481490000	-2	342	617	340	344
Si	2.330360000	1.511750000	10.633110000	-2	273	306	339	333
O	4.763690000	-0.900480000	12.226250000	-1	323	324	0	0
H	4.783300000	0.984430000	13.921360000	-3	323	0	0	0
O	6.053680000	1.354480000	11.760000000	-1	323	611	0	0
O	3.415700000	1.331620000	11.816780000	-1	323	329	0	0
H	4.782090000	-2.780570000	13.925140000	-3	324	0	0	0
O	6.049420000	-3.157520000	11.763750000	-1	267	324	0	0
O	3.411440000	-3.130380000	11.822530000	-1	324	612	0	0
O	-0.081330000	-0.895190000	12.149690000	-1	325	326	0	0
O	-1.557150000	1.284880000	12.344250000	-1	325	327	0	0
O	0.840530000	1.407800000	11.248550000	-1	325	329	0	0
O	-1.559400000	-3.072120000	12.342010000	-1	326	328	0	0
O	0.837270000	-3.196200000	11.243290000	-1	326	612	0	0
O	-3.046290000	-0.893030000	12.279570000	-1	327	328	0	0
O	-4.000440000	1.387070000	11.354980000	-1	327	610	0	0
O	-4.004700000	-3.171930000	11.355730000	-1	248	328	0	0
H	8.544550000	1.396360000	11.294260000	-3	611	0	0	0
H	8.540280000	-3.188640000	11.296000000	-3	267	0	0	0
H	0.956980000	9.451800000	11.195970000	-3	613	0	0	0
Si	-12.039490000	-6.713780000	-0.736090000	-2	356	355	357	674
Si	-12.037300000	-3.516780000	-0.731910000	-2	355	358	360	359
Si	-7.234510000	-6.717050000	-0.803520000	-2	72	362	361	363
Si	-7.233330000	-3.523050000	-0.807340000	-2	75	361	364	365
Si	-4.223480000	-6.725230000	-0.721410000	-2	618	362	366	367
Si	-4.222300000	-3.518230000	-0.721230000	-23	366	619	364	368
Si	-9.617080000	-7.526820000	-2.566860000	-2	158	178	363	357
O	-12.048470000	-5.114770000	-0.972000000	-1	348	349	0	0
O	-12.070030000	-7.024870000	0.849900000	-1	68	348	0	0
O	-10.701720000	-7.346820000	-1.383520000	-1	348	354	0	0
O	-12.069820000	-3.210870000	0.854120000	-1	69	349	0	0
H	-13.231460000	-2.910680000	-1.377520000	-3	349	0	0	0
O	-10.696460000	-2.884820000	-1.376270000	-1	349	603	0	0
O	-7.203490000	-5.120040000	-1.051430000	-1	350	351	0	0
O	-5.728560000	-7.299140000	-0.858000000	-1	350	352	0	0
O	-8.125890000	-7.421940000	-1.952290000	-1	350	354	0	0
O	-5.726310000	-2.942140000	-0.859750000	-1	351	353	0	0
O	-8.123630000	-2.818940000	-1.957030000	-1	351	603	0	0
O	-4.239450000	-5.122220000	-0.923310000	-1	352	353	0	0
O	-3.284860000	-7.401220000	-1.848730000	-1	352	604	0	0
O	-3.280600000	-2.843220000	-1.847470000	-1	21	353	0	0
Si	5.426490000	-6.717780000	-0.807270000	-2	89	378	377	379
Si	5.427670000	-3.523780000	-0.811090000	-23	92	377	380	381
Si	8.437520000	-6.725960000	-0.725160000	-2	378	620	382	383
Si	8.438700000	-3.518960000	-0.724980000	-2	382	621	380	384
Si	3.044920000	-7.527540000	-2.570610000	-23	170	196	376	379
O	0.591960000	-7.025590000	0.846150000	-1	84	22	0	0
O	-0.677730000	-7.370390000	-1.441500000	-1	22	604	0	0
O	1.960280000	-7.347550000	-1.387280000	-1	22	373	0	0
O	5.457510000	-5.120770000	-1.055190000	-1	369	370	0	0
O	6.933440000	-7.299860000	-0.861750000	-1	369	371	0	0
O	4.535110000	-7.422660000	-1.956050000	-1	369	373	0	0
O	6.935690000	-2.942860000	-0.863510000	-1	370	372	0	0
O	4.537370000	-2.819660000	-1.960790000	-1	370	23	0	0
O	8.422550000	-5.122940000	-0.927070000	-1	371	372	0	0
O	9.376140000	-7.401950000	-1.852480000	-1	371	605	0	0
O	9.380400000	-2.843950000	-1.851220000	-1	209	372	0	0
Si	13.282510000	-6.715230000	-0.743600000	-2	388	387	389	675
Si	13.284690000	-3.518230000	-0.739420000	-2	387	390	391	392
O	13.273530000	-5.116220000	-0.979510000	-1	385	386	0	0
O	13.252960000	-7.026320000	0.842390000	-1	103	385	0	0
O	11.983260000	-7.371120000	-1.445250000	-1	385	605	0	0
O	13.253180000	-3.212320000	0.846610000	-1	104	386	0	0
O	11.987520000	-2.859120000	-1.441000000	-1	209	386	0	0
H	14.518550000	-2.937270000	-1.331750000	-3	386	0	0	0
Si	-12.038760000	5.948220000	-0.735370000	-2	399	400	402	401
Si	-7.233780000	5.944950000	-0.802800000	-2	119	403	404	405
Si	-7.232600000	9.137950000	-0.806620000	-2	122	406	403	407
Si	-4.222760000	5.936770000	-0.720690000	-2	408	622	404	409
Si	-4.221570000	9.142770000	-0.720510000	-2	623	406	408	410
Si	-9.616350000	5.134180000	-2.566140000	-2	184	221	405	402
H	-12.046740000	7.418230000	-0.952290000	-3	393	0	0	0
O	-12.069310000	5.637130000	0.850620000	-1	116	393	0	0
H	-13.234990000	5.344320000	-1.381050000	-3	393	0	0	0
O	-10.700990000	5.315180000	-1.382810000	-1	393	398	0	0
O	-7.202760000	7.540960000	-1.050720000	-1	394	395	0	0
O	-5.727830000	5.361860000	-0.857280000	-1	394	396	0	0
O	-8.125160000	5.239060000	-1.951580000	-1	394	398	0	0
O	-5.725580000	9.718860000	-0.859030000	-1	395	397	0	0
O	-8.122900000	9.842060000	-1.956320000	-1	395	606	0	0
O	-4.238730000	7.539780000	-0.922600000	-1	396	397	0	0
O	-3.284130000	5.259780000	-1.848010000	-1	396	607	0	0
O	-3.279870000	9.817780000	-1.846750000	-1	227	397	0	0
Si	0.622240000	5.947490000	-0.739130000	-2	418	419	420	421
Si	0.624420000	9.143490000	-0.734950000	-2	422	418	423	424
Si	5.427220000	5.944220000	-0.806560000	-2	134	425	426	427
Si	5.428400000	9.137220000	-0.810380000	-2	137	428	425	429
Si	8.438240000	5.936040000	-0.724450000	-2	426	430	624	431
Si	8.439420000	9.142040000	-0.724270000	-2	428	625	430	432
Si	3.045650000	5.133460000	-2.569890000	-2	205	233	421	427
O	0.613260000	7.545510000	-0.975040000	-1	411	412	0	0
O	0.592690000	5.636410000	0.846860000	-1	128	411	0	0
O	-0.677010000	5.291610000	-1.440780000	-1	411	607	0	0
O	1.961010000	5.314450000	-1.386560000	-1	411	417	0	0
O	0.592910000	9.449410000	0.851080000	-1	129	412	0	0
O	-0.672750000	9.803610000	-1.436530000	-1	227	412	0	0
O	1.965270000	9.775450000	-1.379310000	-1	412	608	0	0
O	5.458230000	7.540230000	-1.054470000	-1	413	414	0	0
O	6.934170000	5.361140000	-0.861040000	-1	413	415	0	0
O	4.535840000	5.238340000	-1.955330000	-1	413	417	0	0
O	6.936420000	9.718140000	-0.862790000	-1	414	416	0	0
O	4.538100000	9.841340000	-1.960070000	-1	414	608	0	0
O	8.423270000	7.539060000	-0.926350000	-1	415	416	0	0
O	9.376870000	5.259050000	-1.851770000	-1	415	609	0	0
O	9.381130000	9.817050000	-1.850510000	-1	239	416	0	0
Si	13.283240000	5.946770000	-0.742890000	-2	676	434	435	677
O	13.253690000	5.635680000	0.843110000	-1	148	433	0	0
O	11.983990000	5.290880000	-1.444540000	-1	433	609	0	0
Si	-6.255710000	-9.917490000	5.881010000	-2	440	439	438	632
Si	-9.461710000	-9.916300000	5.881960000	-2	439	441	678	679
H	-5.726830000	-11.301510000	5.754780000	-3	436	0	0	0
O	-7.858770000	-9.932380000	5.679490000	-1	436	437	0	0
O	-5.578990000	-8.978460000	4.753870000	-1	436	596	0	0
O	-10.137990000	-8.974200000	4.755220000	-1	70	437	0	0
Si	6.397090000	-12.928210000	5.793090000	-2	680	447	681	446
Si	3.204090000	-12.927020000	5.791040000	-2	682	448	449	446
Si	6.405290000	-9.918210000	5.877260000	-2	451	450	447	633
Si	3.199290000	-9.917030000	5.878210000	-2	452	450	448	634
O	4.801020000	-12.898100000	5.546560000	-1	442	443	0	0
O	6.980160000	-11.422240000	5.740000000	-1	442	444	0	0
O	2.623160000	-11.419990000	5.738290000	-1	443	445	0	0
H	2.555730000	-13.745930000	4.732180000	-3	443	0	0	0
O	4.802230000	-9.933110000	5.675730000	-1	444	445	0	0
O	7.082010000	-8.979190000	4.750110000	-1	444	598	0	0
O	2.524010000	-8.974930000	4.751460000	-1	87	445	0	0
Si	-6.266440000	-5.071490000	5.864290000	-2	463	460	462	461
Si	-9.463430000	-5.069300000	5.868240000	-2	460	466	465	464
Si	-6.263180000	-0.266480000	5.797560000	-2	250	468	467	469
Si	-9.457180000	-0.265300000	5.795510000	-2	253	467	470	471
Si	-6.254980000	2.744510000	5.881730000	-2	473	472	468	635
Si	-9.460980000	2.745700000	5.882680000	-2	472	474	470	636
Si	-5.453840000	-2.648430000	4.033190000	-2	76	102	469	463
O	-7.865510000	-5.080380000	5.627760000	-1	453	454	0	0
O	-5.954970000	-5.102590000	7.449200000	-1	245	453	0	0
O	-5.610720000	-6.371480000	5.162020000	-1	453	596	0	0
O	-5.633550000	-3.733480000	5.217180000	-1	453	459	0	0
O	-9.768970000	-5.102370000	7.455330000	-1	246	454	0	0
O	-10.122720000	-6.367220000	5.167360000	-1	70	454	0	0
O	-10.095550000	-3.728230000	5.225500000	-1	454	597	0	0
O	-7.860250000	-0.235380000	5.551040000	-1	455	456	0	0
O	-5.680110000	1.239490000	5.744470000	-1	455	457	0	0
O	-5.557570000	-1.157460000	4.648300000	-1	455	459	0	0
O	-10.037110000	1.241740000	5.742770000	-1	456	458	0	0
O	-10.161570000	-1.155190000	4.644670000	-1	456	597	0	0
O	-7.858040000	2.728620000	5.680200000	-1	457	458	0	0
O	-5.578260000	3.683540000	4.754580000	-1	457	600	0	0
O	-10.137260000	3.687800000	4.755930000	-1	117	458	0	0
Si	6.394560000	-5.072210000	5.860530000	-2	485	482	484	483
Si	3.198560000	-5.070030000	5.864480000	-2	488	482	487	486
Si	6.397820000	-0.267210000	5.793810000	-2	269	490	489	491
Si	3.204820000	-0.266020000	5.791750000	-2	272	492	489	493
Si	6.406020000	2.743790000	5.877970000	-2	495	494	490	637
Si	3.200020000	2.744970000	5.878920000	-2	496	494	492	638
Si	7.208160000	-2.649150000	4.029430000	-2	93	113	491	485
O	4.796490000	-5.081110000	5.624010000	-1	475	476	0	0
O	6.706030000	-5.103320000	7.445440000	-1	263	475	0	0
O	7.050280000	-6.372210000	5.158270000	-1	475	598	0	0
O	7.027450000	-3.734210000	5.213420000	-1	475	481	0	0
O	2.893030000	-5.103100000	7.451570000	-1	264	476	0	0
O	2.538280000	-6.367950000	5.163610000	-1	87	476	0	0
O	2.566450000	-3.728950000	5.221750000	-1	476	599	0	0
O	4.801750000	-0.236100000	5.547280000	-1	477	478	0	0
O	6.980890000	1.238760000	5.740720000	-1	477	479	0	0
O	7.103430000	-1.158180000	4.644550000	-1	477	481	0	0
O	2.623890000	1.241010000	5.739010000	-1	478	480	0	0
O	2.500430000	-1.155920000	4.640910000	-1	478	599	0	0
O	4.802960000	2.727890000	5.676450000	-1	479	480	0	0
O	7.082740000	3.682810000	4.750830000	-1	479	601	0	0
O	2.524740000	3.687070000	4.752180000	-1	132	480	0	0
Si	-6.265710000	7.589510000	5.865010000	-2	502	500	503	501
Si	-9.462710000	7.591700000	5.868950000	-2	500	505	506	504
Si	-5.453110000	10.013570000	4.033900000	-2	123	147	507	503
O	-7.864780000	7.580620000	5.628480000	-1	497	498	0	0
O	-5.954240000	7.559410000	7.449910000	-1	282	497	0	0
O	-5.609990000	6.290520000	5.162740000	-1	497	600	0	0
O	-5.632830000	8.928520000	5.217890000	-1	497	499	0	0
O	-9.768240000	7.559630000	7.456040000	-1	283	498	0	0
O	-10.121990000	6.294780000	5.168080000	-1	117	498	0	0
H	-10.043810000	8.825760000	5.277200000	-3	498	0	0	0
H	-5.548870000	11.384550000	4.600010000	-3	499	0	0	0
Si	6.395290000	7.588790000	5.861250000	-2	514	512	515	513
Si	3.199290000	7.590970000	5.865200000	-2	517	512	518	516
Si	3.205540000	12.394980000	5.792470000	-2	297	521	519	683
Si	7.208880000	10.012850000	4.030150000	-2	138	157	520	515
O	4.797220000	7.579890000	5.624720000	-1	508	509	0	0
O	6.706760000	7.558680000	7.446160000	-1	293	508	0	0
O	7.051010000	6.289790000	5.158980000	-1	508	601	0	0
O	7.028170000	8.927790000	5.214140000	-1	508	511	0	0
O	2.893760000	7.558900000	7.452290000	-1	294	509	0	0
O	2.539010000	6.294050000	5.164320000	-1	132	509	0	0
O	2.567180000	8.932040000	5.222460000	-1	509	602	0	0
H	4.674480000	12.422900000	5.568030000	-3	510	0	0	0
H	7.112130000	11.383820000	4.596250000	-3	511	0	0	0
O	2.501150000	11.505080000	4.641630000	-1	510	602	0	0
H	-1.308330000	-13.521120000	-5.639660000	-3	159	0	0	0
H	-1.692000000	-12.211960000	-8.132470000	-3	590	0	0	0
H	2.454670000	-13.522330000	-5.635770000	-3	160	0	0	0
H	2.850000000	-12.215220000	-8.128820000	-3	24	0	0	0
Si	-10.487110000	-0.944500000	-7.334220000	-2	528	531	530	529
Si	-10.493410000	-5.748490000	-7.407490000	-2	177	684	533	532
H	-11.957180000	-0.933400000	-7.554790000	-3	526	0	0	0
O	-10.180640000	-0.911600000	-5.747310000	-1	174	526	0	0
O	-9.828250000	0.353500000	-8.036350000	-1	29	526	0	0
O	-9.855380000	-2.284500000	-7.977490000	-1	526	591	0	0
H	-9.958500000	-7.134520000	-7.456730000	-3	527	0	0	0
O	-9.789700000	-4.858470000	-8.558650000	-1	527	591	0	0
Si	-1.022120000	-0.942040000	-7.340030000	-2	541	544	543	542
Si	2.173890000	-0.945220000	-7.337980000	-2	547	541	546	545
Si	-1.025410000	-5.748040000	-7.407300000	-2	192	548	550	549
Si	2.167590000	-5.749220000	-7.411250000	-2	195	552	548	551
Si	-1.033560000	-8.758040000	-7.323470000	-2	553	554	549	626
Si	2.172440000	-8.759220000	-7.324420000	-2	555	553	551	627
Si	-1.836800000	-3.365890000	-9.170930000	-2	37	50	550	544
O	0.575810000	-0.933120000	-7.577510000	-1	534	535	0	0
O	-1.332640000	-0.912110000	-5.754940000	-1	187	534	0	0
O	-1.678250000	0.357040000	-8.042760000	-1	534	592	0	0
O	-1.655380000	-2.280970000	-7.986920000	-1	534	540	0	0
O	2.480360000	-0.912330000	-5.751070000	-1	188	535	0	0
O	2.833750000	0.352780000	-8.040100000	-1	44	535	0	0
O	2.805620000	-2.285220000	-7.981240000	-1	535	593	0	0
O	0.570510000	-5.779110000	-7.654780000	-1	536	537	0	0
O	-1.608510000	-7.254000000	-7.460220000	-1	536	538	0	0
O	-1.731700000	-4.856930000	-8.556040000	-1	536	540	0	0
O	2.748490000	-7.256250000	-7.464510000	-1	537	539	0	0
O	2.871300000	-4.859190000	-8.562410000	-1	537	593	0	0
O	0.569380000	-8.743120000	-7.525950000	-1	538	539	0	0
O	-1.710950000	-9.697940000	-8.450320000	-1	538	590	0	0
O	2.847050000	-9.701200000	-8.451680000	-1	24	539	0	0
Si	11.638880000	-0.942760000	-7.343790000	-2	685	561	560	559
Si	11.635590000	-5.748760000	-7.411060000	-2	211	686	563	562
Si	10.824200000	-3.366610000	-9.174680000	-2	59	687	563	561
O	11.328360000	-0.912840000	-5.758690000	-1	207	556	0	0
O	10.982750000	0.356310000	-8.046520000	-1	556	594	0	0
O	11.005610000	-2.281690000	-7.990680000	-1	556	558	0	0
H	11.099490000	-7.134730000	-7.459980000	-3	557	0	0	0
O	10.929300000	-4.857650000	-8.559800000	-1	557	558	0	0
Si	-10.487830000	3.902500000	-7.319950000	-2	688	566	565	628
H	-9.957790000	5.285480000	-7.449030000	-3	564	0	0	0
O	-9.813220000	2.960530000	-8.447200000	-1	29	564	0	0
Si	-1.021390000	11.718960000	-7.339320000	-2	574	576	689	575
Si	2.174610000	11.716780000	-7.337260000	-2	578	574	690	577
Si	-1.024690000	6.913960000	-7.406590000	-2	229	579	580	581
Si	2.168310000	6.912780000	-7.410530000	-2	232	582	579	583
Si	-1.032830000	3.902960000	-7.322750000	-2	584	585	580	629
Si	2.173170000	3.901780000	-7.323710000	-2	586	584	582	630
Si	-1.836070000	9.295110000	-9.170210000	-2	60	61	581	576
O	0.576540000	11.727880000	-7.576790000	-1	567	568	0	0
O	-1.331920000	11.748890000	-5.754220000	-1	225	567	0	0
O	-1.654660000	10.380030000	-7.986200000	-1	567	573	0	0
O	2.481080000	11.748670000	-5.750350000	-1	226	568	0	0
O	2.806340000	10.375780000	-7.980530000	-1	568	595	0	0
O	0.571240000	6.882890000	-7.654060000	-1	569	570	0	0
O	-1.607790000	5.407000000	-7.459500000	-1	569	571	0	0
O	-1.730970000	7.805070000	-8.555330000	-1	569	573	0	0
O	2.749210000	5.404750000	-7.463790000	-1	570	572	0	0
O	2.872020000	7.801810000	-8.561690000	-1	570	595	0	0
O	0.570110000	3.917880000	-7.525230000	-1	571	572	0	0
O	-1.710220000	2.964060000	-8.449610000	-1	571	592	0	0
O	2.847780000	2.959800000	-8.450960000	-1	44	572	0	0
Si	11.628170000	3.902240000	-7.326510000	-2	691	589	588	631
H	11.099210000	5.286270000	-7.452270000	-3	587	0	0	0
O	10.950780000	2.963340000	-8.453360000	-1	587	594	0	0
Si	-1.839240000	-11.144890000	-9.157370000	-2	692	693	523	554
Si	-9.617790000	-3.366440000	-9.154620000	-2	694	34	531	533
Si	-1.838510000	1.516110000	-9.156650000	-2	36	47	543	585
Si	3.043210000	-3.367170000	-9.158370000	-2	51	56	547	552
Si	10.822490000	1.515390000	-9.160410000	-2	58	695	560	589
Si	3.043930000	9.294830000	-9.157660000	-2	62	63	578	583
Si	-5.451120000	-7.530430000	4.046910000	-2	73	101	440	462
Si	-10.333840000	-2.647150000	4.048630000	-2	77	81	466	471
Si	7.209880000	-7.531150000	4.043150000	-2	90	112	451	484
Si	2.328160000	-2.647870000	4.044880000	-23	94	99	488	493
Si	-5.450390000	5.131570000	4.047620000	-2	120	146	473	502
Si	7.210610000	5.130850000	4.043870000	-2	135	156	495	514
Si	2.328890000	10.013130000	4.045590000	-2	139	144	518	521
Si	-9.615790000	-2.646820000	-2.553580000	-2	179	182	360	365
Si	-1.837070000	-7.530260000	-2.556160000	-23	169	193	367	375
Si	10.823930000	-7.530990000	-2.559920000	-2	171	212	383	389
Si	-9.615070000	10.014180000	-2.552860000	-2	222	696	697	407
Si	-1.836350000	5.131740000	-2.555450000	-2	204	230	409	420
Si	3.045930000	10.013460000	-2.556620000	-2	234	237	424	429
Si	10.824650000	5.131010000	-2.559200000	-2	218	241	431	435
Si	-5.448640000	1.515200000	10.648420000	-2	251	291	321	343
Si	7.212360000	1.514470000	10.644660000	-2	270	305	332	345
Si	2.330080000	-3.368250000	10.645840000	-2	274	279	336	341
Si	2.330810000	9.293750000	10.646550000	-2	298	303	698	347
O	-3.647520000	1.064400000	-12.457140000	-1	27	310	0	0
O	-3.647740000	-2.847600000	-12.457360000	-1	28	311	0	0
H	-3.593720000	1.034910000	13.831840000	-3	327	0	0	0
H	-3.593940000	-2.821090000	13.831620000	-3	328	0	0	0
O	-3.644070000	-7.077350000	0.745400000	-1	85	352	0	0
O	-3.643840000	-3.166350000	0.745620000	-1	86	353	0	0
O	9.016930000	-7.078070000	0.741640000	-1	105	371	0	0
O	9.017150000	-3.167070000	0.741860000	-1	106	372	0	0
O	-3.643340000	5.583650000	0.746110000	-1	130	396	0	0
O	-3.643120000	9.494650000	0.746340000	-1	131	397	0	0
O	9.017660000	5.582930000	0.742360000	-1	149	415	0	0
O	9.017880000	9.493930000	0.742580000	-1	150	416	0	0
O	-1.386160000	-9.338100000	-5.856400000	-1	161	538	0	0
O	2.524840000	-9.338330000	-5.857560000	-1	162	539	0	0
O	-10.135430000	3.324400000	-5.853090000	-1	175	564	0	0
O	-1.385430000	3.323900000	-5.855680000	-1	189	571	0	0
O	2.525570000	3.323670000	-5.856840000	-1	190	572	0	0
O	11.275570000	3.323170000	-5.859440000	-1	208	587	0	0
O	-5.902240000	-9.338590000	7.347940000	-1	247	436	0	0
O	6.758760000	-9.339320000	7.344190000	-1	265	444	0	0
O	2.847760000	-9.339090000	7.345350000	-1	266	445	0	0
O	-5.901510000	3.323410000	7.348660000	-1	284	457	0	0
O	-9.813510000	3.323630000	7.349820000	-1	285	458	0	0
O	6.759480000	3.322680000	7.344900000	-1	295	479	0	0
O	2.848480000	3.322910000	7.346060000	-1	296	480	0	0
H	2.044430000	-11.314050000	-10.233530000	-3	24	0	0	0
H	4.413590000	-11.245220000	-9.712230000	-3	24	0	0	0
H	-7.831460000	0.986630000	-12.237900000	-3	25	0	0	0
H	-7.831670000	-2.777370000	-12.234120000	-3	26	0	0	0
H	-10.616840000	1.347670000	-10.229060000	-3	29	0	0	0
H	8.967510000	1.035670000	-12.343880000	-3	42	0	0	0
H	8.967290000	-2.820330000	-12.344100000	-3	43	0	0	0
H	-14.101600000	-7.251840000	2.348490000	-3	68	0	0	0
H	13.427690000	-7.367470000	3.347320000	-3	103	0	0	0
H	-12.743710000	7.413070000	2.526920000	-3	116	0	0	0
H	-14.100880000	5.409160000	2.349210000	-3	116	0	0	0
H	-14.221080000	1.120540000	-4.252000000	-3	173	0	0	0
H	-13.969610000	-0.859390000	-5.635190000	-3	173	0	0	0
H	-14.334910000	-1.085510000	-3.245090000	-3	173	0	0	0
H	-11.955680000	7.582410000	-4.151310000	-3	219	0	0	0
H	-1.559360000	13.780820000	-4.255040000	-3	225	0	0	0
H	2.704640000	13.782570000	-4.254300000	-3	226	0	0	0
H	13.110320000	7.580970000	-4.158740000	-3	238	0	0	0
H	11.895220000	9.819890000	-1.528250000	-3	239	0	0	0
H	10.923850000	11.384040000	-3.110880000	-3	239	0	0	0
H	-9.990640000	-7.135450000	8.951280000	-3	246	0	0	0
H	-10.104210000	-4.930500000	9.961440000	-3	246	0	0	0
H	7.029490000	-9.624470000	9.848090000	-3	265	0	0	0
H	-10.103490000	7.730500000	9.962150000	-3	283	0	0	0
H	3.514880000	1.282110000	-14.538250000	-3	307	0	0	0
H	5.941860000	1.303970000	-14.589970000	-3	307	0	0	0
H	4.754870000	-0.770980000	-14.160740000	-3	307	0	0	0
H	0.761720000	1.353300000	-15.065430000	-3	308	0	0	0
H	0.758470000	-3.138700000	-15.070680000	-3	309	0	0	0
H	-3.933250000	1.334560000	-14.961040000	-3	310	0	0	0
H	-3.937500000	-3.116440000	-14.960290000	-3	311	0	0	0
H	-7.877700000	0.985150000	13.925110000	-3	318	0	0	0
H	-9.138290000	1.281340000	11.872500000	-3	318	0	0	0
H	-7.878910000	-2.779850000	13.928900000	-3	319	0	0	0
H	-9.142540000	-3.078660000	11.878260000	-3	319	0	0	0
H	-13.235710000	-7.317680000	-1.381770000	-3	348	0	0	0
H	14.514300000	-7.297270000	-1.339000000	-3	385	0	0	0
H	13.275260000	7.416780000	-0.959800000	-3	433	0	0	0
H	14.515030000	5.364730000	-1.338280000	-3	433	0	0	0
H	-9.991830000	-11.299270000	5.753040000	-3	437	0	0	0
H	-9.786280000	-9.384360000	7.232090000	-3	437	0	0	0
H	6.680450000	-13.522300000	7.125970000	-3	442	0	0	0
H	7.046730000	-13.749180000	4.735850000	-3	442	0	0	0
H	2.917450000	-13.523080000	7.123090000	-3	443	0	0	0
H	2.670610000	13.782010000	5.743710000	-3	510	0	0	0
H	-11.962480000	-5.776400000	-7.631060000	-3	527	0	0	0
H	13.108820000	-0.934840000	-7.562220000	-3	556	0	0	0
H	13.104520000	-5.777830000	-7.638500000	-3	557	0	0	0
H	11.891910000	-3.173620000	-10.191990000	-3	558	0	0	0
H	-11.963890000	3.917600000	-7.505510000	-3	564	0	0	0
H	-1.625510000	12.914030000	-7.986070000	-3	567	0	0	0
H	2.781490000	12.909780000	-7.983380000	-3	568	0	0	0
H	13.103110000	3.916160000	-7.512950000	-3	587	0	0	0
H	-3.171440000	-11.263780000	-9.806980000	-3	590	0	0	0
H	-0.773550000	-11.292890000	-10.183690000	-3	590	0	0	0
H	-10.613100000	-3.147330000	-10.237310000	-3	591	0	0	0
H	11.888170000	1.368380000	-10.186730000	-3	594	0	0	0
H	-9.773150000	11.387220000	-3.100740000	-3	606	0	0	0
H	-10.609760000	9.795180000	-1.469580000	-3	606	0	0	0
H	3.326140000	9.512630000	11.729270000	-3	613	0	0	0
$end

--------------------------------------------------------------
 ----------------------------------------------------------------
             Standard Nuclear Orientation (Angstroms)
    I     Atom           X                Y                Z
 ----------------------------------------------------------------
    1      C       2.5194880790    -0.1901378169     0.7411550718
    2      C       1.1358216154     0.1873593616     0.2476717030
    3      O       0.5755156065    -0.7815772589    -0.6197409526
    4      C       0.1562667818     0.4120293174     1.3854534192
    5      O      -0.9412803937    -0.0776655615     1.3578200222
    6      H       2.4817919501    -1.1330306119     1.3026245265
    7      H       2.9026137333     0.6005323197     1.4019360137
    8      H       3.2148921094    -0.2870472829    -0.1028261189
    9      H       1.1984948465     1.1507279100    -0.2968540618
   10      H       0.4942177390     1.0671593601     2.2208489017
   11      H      -0.3923867669    -0.7559593391    -0.4737707896
   12      Sn      0.6180710684    -3.1878212669    -0.7486013621
   13      O       0.6320372875    -5.1166785590    -1.0993747066
   14      O       0.9020623698    -3.0970931986     1.1493212501
   15      O      -1.2153160411    -2.7113847825    -1.0558951252
   16      O       2.6318521967    -2.8393873382    -0.8872471734
   17      O       1.0583136975    -2.7932803878    -2.7258556117
   18      H       3.3077067506    -2.8914532200    -0.1938204128
   19      H       0.8379652862    -3.5587233110    -3.2801097689
   20      Si     -0.0602221392    -3.5304621541     2.3899022536
   21      Si     -1.9243087845    -2.6225085952    -2.5381787073
   22      Si      0.6212116176    -6.7043387025    -0.7521043457
   23      Si      3.0399890629    -2.6399248068    -2.5931185064
   24      Si      3.0427600000   -11.1481700000    -9.1448100000
   25      Si     -7.2370800000     0.7035200000   -10.9051000000
   26      Si     -7.2362600000    -2.4904800000   -10.9022800000
   27      Si     -4.2261000000     0.7113500000   -10.9899900000
   28      Si     -4.2252900000    -2.4946500000   -10.9901700000
   29      Si     -9.6185100000     1.5135600000    -9.1403400000
   30      O      -7.2061000000    -0.8935000000   -10.6582000000
   31      O      -5.7310300000     1.2864300000   -10.8525100000
   32      O      -8.1277000000     1.4095000000    -9.7567900000
   33      O      -5.7292800000    -3.0705700000   -10.8497600000
   34      O      -8.1259600000    -3.1945000000    -9.7510500000
   35      O      -4.2421400000    -0.8916600000   -10.7880700000
   36      O      -3.2867300000     1.3882300000    -9.8632300000
   37      O      -3.2829900000    -3.1707700000    -9.8644900000
   38      Si      0.6189000000     0.7000700000   -10.9744300000
   39      Si      0.6207200000    -2.4969300000   -10.9786100000
   40      Si      5.4239200000     0.7027900000   -10.9088500000
   41      Si      5.4247400000    -2.4912100000   -10.9060300000
   42      Si      8.4349000000     0.7106300000   -10.9937400000
   43      Si      8.4357100000    -2.4953700000   -10.9939300000
   44      Si      3.0434900000     1.5128300000    -9.1441000000
   45      O       0.6098800000    -0.8989400000   -10.7385100000
   46      O       0.5884500000     1.0111600000   -12.5604000000
   47      O      -0.6798500000     1.3561100000   -10.2720000000
   48      O       1.9581300000     1.3329600000   -10.3277900000
   49      O       0.5882300000    -2.8028400000   -12.5646100000
   50      O      -0.6761100000    -3.1558900000   -10.2762600000
   51      O       1.9618700000    -3.1290400000   -10.3350400000
   52      O       5.4549000000    -0.8942200000   -10.6619500000
   53      O       6.9309700000     1.2857000000   -10.8562600000
   54      O       4.5333000000     1.4087800000    -9.7605500000
   55      O       6.9327200000    -3.0713000000   -10.8535100000
   56      O       4.5350400000    -3.1952200000    -9.7548100000
   57      O       8.4198600000    -0.8923800000   -10.7918300000
   58      O       9.3742700000     1.3875100000    -9.8669800000
   59      O       9.3780100000    -3.1714900000    -9.8682400000
   60      H      -3.1662500000     9.4752200000    -9.8078100000
   61      H      -0.7683600000     9.4881100000   -10.1875200000
   62      H       2.0486200000     9.5139500000   -10.2403500000
   63      H       4.4167800000     9.4527800000    -9.7060600000
   64      H       0.5442400000     0.9846800000    13.7306100000
   65      H       0.5440300000    -2.7793200000    13.7254000000
   66      Si     -7.9096100000    -6.7141900000     2.2306800000
   67      Si     -7.9124300000    -3.5171900000     2.2278700000
   68      Si    -12.7155900000    -6.7169100000     2.2991100000
   69      Si    -12.7164000000    -3.5229100000     2.3022900000
   70      Si    -10.3331100000    -7.5271500000     4.0623600000
   71      O      -7.9004500000    -5.1152000000     2.4677700000
   72      O      -7.8801000000    -7.0251000000     0.6456600000
   73      O      -6.6104400000    -7.3703000000     2.9322600000
   74      O      -9.2484500000    -7.3471500000     2.8780500000
   75      O      -7.8798800000    -3.2111000000     0.6408700000
   76      O      -6.6141800000    -2.8583000000     2.9285200000
   77      O      -9.2522000000    -2.8851400000     2.8713000000
   78      O     -12.7464200000    -5.1199300000     2.5462100000
   79      O     -11.8242900000    -7.4220300000     3.4468100000
   80      H     -14.1023600000    -2.9878400000     2.3517300000
   81      O     -11.8260200000    -2.8190300000     3.4530700000
   82      Si      4.7513900000    -6.7149100000     2.2269300000
   83      Si      4.7495700000    -3.5179100000     2.2241100000
   84      Si     -0.0535900000    -6.7176400000     2.2953500000
   85      Si     -3.0646100000    -6.7254600000     2.2122500000
   86      Si     -3.0654300000    -3.5184600000     2.2124300000
   87      Si      2.3278900000    -7.5278800000     4.0586000000
   88      O       4.7605500000    -5.1159200000     2.4640200000
   89      O       4.7809000000    -7.0258200000     0.6419000000
   90      O       6.0505600000    -7.3710200000     2.9285100000
   91      O       3.4125500000    -7.3478700000     2.8742900000
   92      O       4.7811200000    -3.2118200000     0.6371200000
   93      O       6.0468200000    -2.8590200000     2.9247600000
   94      O       3.4088000000    -2.8858700000     2.8675400000
   95      O      -0.0844200000    -5.1206500000     2.5424500000
   96      O      -1.5606100000    -7.2995600000     2.3487700000
   97      O       0.8377100000    -7.4227600000     3.4430500000
   98      O      -1.5623600000    -2.9425600000     2.3520200000
   99      O       0.8349800000    -2.8197600000     3.4493100000
  100      O      -3.0494600000    -5.1224700000     2.4143300000
  101      O      -4.0033200000    -7.4014700000     3.3394900000
  102      O      -4.0070600000    -2.8434700000     3.3397500000
  103      Si     12.6074100000    -6.7183600000     2.2916000000
  104      Si     12.6065900000    -3.5243600000     2.2947800000
  105      Si      9.5963900000    -6.7261900000     2.2084900000
  106      Si      9.5955700000    -3.5191900000     2.2086700000
  107      O      12.5765800000    -5.1213800000     2.5387000000
  108      O      11.1013900000    -7.3002800000     2.3450100000
  109      O      11.0996400000    -2.9432800000     2.3482600000
  110      H      13.4259500000    -2.8764700000     3.3535700000
  111      O       9.6125400000    -5.1232000000     2.4105800000
  112      O       8.6576800000    -7.4022000000     3.3357300000
  113      O       8.6539400000    -2.8442000000     3.3359900000
  114      Si     -7.9088800000     5.9478100000     2.2314000000
  115      Si     -7.9117000000     9.1438100000     2.2285800000
  116      Si    -12.7148600000     5.9450900000     2.2998300000
  117      Si    -10.3323900000     5.1338500000     4.0630700000
  118      O      -7.8997200000     7.5458000000     2.4684900000
  119      O      -7.8793700000     5.6369000000     0.6463700000
  120      O      -6.6097100000     5.2917000000     2.9329800000
  121      O      -9.2477300000     5.3148500000     2.8787600000
  122      O      -7.8791500000     9.4499000000     0.6415900000
  123      O      -6.6134500000     9.8037000000     2.9292300000
  124      H      -9.1444900000     9.7248500000     2.8209800000
  125      O     -11.8235600000     5.2389700000     3.4475200000
  126      Si      4.7521200000     5.9470900000     2.2276500000
  127      Si      4.7503000000     9.1430900000     2.2248300000
  128      Si     -0.0528600000     5.9443600000     2.2960700000
  129      Si     -0.0536800000     9.1373600000     2.2992500000
  130      Si     -3.0638900000     5.9365400000     2.2129600000
  131      Si     -3.0647000000     9.1425400000     2.2131400000
  132      Si      2.3286100000     5.1331200000     4.0593200000
  133      O       4.7612800000     7.5450800000     2.4647300000
  134      O       4.7816300000     5.6361800000     0.6426200000
  135      O       6.0512900000     5.2909800000     2.9292200000
  136      O       3.4132700000     5.3141300000     2.8750100000
  137      O       4.7818500000     9.4491800000     0.6378300000
  138      O       6.0475400000     9.8029800000     2.9254800000
  139      O       3.4095300000     9.7751300000     2.8682600000
  140      O      -0.0837000000     7.5403500000     2.5431700000
  141      O      -1.5598800000     5.3614400000     2.3494800000
  142      O       0.8384400000     5.2382400000     3.4437700000
  143      O      -1.5616300000     9.7184400000     2.3527300000
  144      O       0.8357000000     9.8412400000     3.4500300000
  145      O      -3.0487400000     7.5395300000     2.4150500000
  146      O      -4.0025900000     5.2595300000     3.3402000000
  147      O      -4.0063300000     9.8175300000     3.3404600000
  148      Si     12.6081400000     5.9436400000     2.2923100000
  149      Si      9.5971100000     5.9358100000     2.2092100000
  150      Si      9.5962900000     9.1418100000     2.2093900000
  151      H      12.5792900000     7.4116200000     2.5194100000
  152      O      11.1021200000     5.3607200000     2.3457300000
  153      H      13.4284100000     5.2935300000     3.3480300000
  154      H      10.9803600000     9.6717300000     2.3380100000
  155      O       9.6132600000     7.5388000000     2.4112900000
  156      O       8.6584100000     5.2588000000     3.3364500000
  157      O       8.6546700000     9.8168000000     3.3367100000
  158      H      -9.7963400000    -8.8577700000    -3.2048800000
  159      Si     -1.0249000000   -12.9272100000    -4.3067100000
  160      Si      2.1681000000   -12.9263900000    -4.3046600000
  161      Si     -1.0327500000    -9.9172100000    -4.3895400000
  162      Si      2.1732500000    -9.9163900000    -4.3904900000
  163      O       0.5711700000   -12.8973200000    -4.0591800000
  164      O      -1.6078000000   -11.4211800000    -4.2524500000
  165      H      -1.6746400000   -13.7482300000    -3.2495600000
  166      O       2.7492000000   -11.4194300000    -4.2517400000
  167      H       2.8163700000   -13.7454900000    -3.2458900000
  168      O       0.5703000000    -9.9323100000    -4.1880100000
  169      O      -1.7093700000    -8.9782300000    -3.2622800000
  170      O       2.8486300000    -8.9744900000    -3.2646300000
  171      H      10.9416600000    -8.8629600000    -3.2100300000
  172      Si    -10.4864700000    -5.0686600000    -4.3734600000
  173      Si    -13.6861800000    -0.2654900000    -4.3022400000
  174      Si    -10.4921800000    -0.2646700000    -4.3001800000
  175      Si    -10.4870300000     2.7463400000    -4.3860200000
  176      H     -11.9564100000    -5.0785900000    -4.1520200000
  177      O     -10.1809400000    -5.1015900000    -5.9605500000
  178      O      -9.8273400000    -6.3667400000    -3.6717300000
  179      O      -9.8542000000    -3.7277400000    -3.7305700000
  180      O     -12.0891000000    -0.2345900000    -4.0547100000
  181      O      -9.9110700000     1.2423000000    -4.2472700000
  182      O      -9.7878800000    -1.1547700000    -3.1494400000
  183      H     -11.9629700000     2.7304100000    -4.1995800000
  184      O      -9.8116400000     3.6882300000    -3.2601600000
  185      Si     -1.0214700000    -5.0712100000    -4.3732700000
  186      Si      2.1745300000    -5.0693900000    -4.3772100000
  187      Si     -1.0241800000    -0.2662100000    -4.3059900000
  188      Si      2.1688200000    -0.2653900000    -4.3039400000
  189      Si     -1.0320300000     2.7447900000    -4.3888200000
  190      Si      2.1739700000     2.7456100000    -4.3897700000
  191      O       0.5766000000    -5.0803100000    -4.1367400000
  192      O      -1.3329400000    -5.1021000000    -5.9581800000
  193      O      -1.6773400000    -6.3712100000    -3.6701400000
  194      O      -1.6542000000    -3.7332100000    -3.7260000000
  195      O       2.4800500000    -5.1023200000    -5.9643100000
  196      O       2.8346600000    -6.3674700000    -3.6754800000
  197      O       2.8067900000    -3.7284600000    -3.7343300000
  198      O       0.5719000000    -0.2353200000    -4.0584600000
  199      O      -1.6070700000     1.2398200000    -4.2517400000
  200      O      -1.7298900000    -1.1572300000    -3.1568300000
  201      O       2.7499300000     1.2415700000    -4.2510300000
  202      O       2.8731100000    -1.1555000000    -3.1532000000
  203      O       0.5710300000     2.7286900000    -4.1873000000
  204      O      -1.7086400000     3.6837700000    -3.2615700000
  205      O       2.8493600000     3.6875100000    -3.2639200000
  206      Si     11.6395300000    -5.0719300000    -4.3770200000
  207      Si     11.6368200000    -0.2669400000    -4.3097500000
  208      Si     11.6289700000     2.7440700000    -4.3925800000
  209      Si     10.8262100000    -2.6489900000    -2.5456400000
  210      H      13.1095900000    -5.0800300000    -4.1594600000
  211      O      11.3280600000    -5.1028200000    -5.9619300000
  212      O      10.9836600000    -6.3719300000    -3.6739000000
  213      O      11.0068000000    -3.7339300000    -3.7297600000
  214      H      13.1058900000    -0.2380300000    -4.0821800000
  215      O      11.0539200000     1.2390900000    -4.2554900000
  216      O      10.9311100000    -1.1579600000    -3.1605900000
  217      H      13.1040200000     2.7289700000    -4.2070100000
  218      O      10.9523600000     3.6830400000    -3.2653200000
  219      Si    -10.4857500000     7.5923400000    -4.3727400000
  220      H     -10.2041800000     7.5634000000    -5.8328300000
  221      O      -9.8266100000     6.2952600000    -3.6710100000
  222      O      -9.8534800000     8.9332600000    -3.7298500000
  223      Si     -1.0207500000     7.5897900000    -4.3725500000
  224      Si      2.1752500000     7.5916100000    -4.3765000000
  225      Si     -1.0234500000    12.3947900000    -4.3052800000
  226      Si      2.1695500000    12.3956100000    -4.3032200000
  227      Si     -1.8340600000    10.0137400000    -2.5411700000
  228      O       0.5773200000     7.5806900000    -4.1360200000
  229      O      -1.3322200000     7.5599000000    -5.9574600000
  230      O      -1.6766100000     6.2907900000    -3.6694300000
  231      O      -1.6534800000     8.9287900000    -3.7252900000
  232      O       2.4807800000     7.5596800000    -5.9635900000
  233      O       2.8353900000     6.2945300000    -3.6747700000
  234      O       2.8075200000     8.9325400000    -3.7336100000
  235      O       0.5726200000    12.4256800000    -4.0577500000
  236      O      -1.7291600000    11.5037600000    -3.1561200000
  237      O       2.8738400000    11.5055000000    -3.1524800000
  238      Si     11.6402500000     7.5890700000    -4.3763100000
  239      Si     10.8269300000    10.0130100000    -2.5449300000
  240      H      11.3538200000     7.5611700000    -5.8342200000
  241      O      10.9843900000     6.2900700000    -3.6731800000
  242      O      11.0075200000     8.9280700000    -3.7290400000
  243      Si     -6.2653200000    -0.9426500000     8.8315200000
  244      Si     -9.4623200000    -0.9454700000     8.8294700000
  245      Si     -6.2625700000    -5.7486600000     8.8982500000
  246      Si     -9.4565700000    -5.7494700000     8.9022000000
  247      Si     -6.2547700000    -8.7586500000     8.8150800000
  248      Si     -5.4519200000    -3.3668000000    10.6621400000
  249      O      -7.8642500000    -0.9335700000     9.0690000000
  250      O      -5.9547900000    -0.9125800000     7.2464300000
  251      O      -5.6090400000     0.3562700000     9.5344000000
  252      O      -5.6322000000    -2.2817300000     9.4782600000
  253      O      -9.7687900000    -0.9123600000     7.2435600000
  254      H     -10.0680600000     0.2485300000     9.4757200000
  255      H     -10.0432100000    -2.1784700000     9.4215700000
  256      O      -7.8595000000    -5.7795800000     9.1467200000
  257      O      -5.6796500000    -7.2546900000     8.9519900000
  258      O      -5.5561800000    -4.8577600000    10.0470900000
  259      H      -7.7297200000    -8.7445800000     9.0015200000
  260      H      -5.6315100000    -9.6237500000     9.8518400000
  261      Si      6.3956800000    -0.9433800000     8.8277700000
  262      Si      3.1996800000    -0.9461900000     8.8257200000
  263      Si      6.3984200000    -5.7493800000     8.8945000000
  264      Si      3.2054300000    -5.7502000000     8.8984400000
  265      Si      6.4062300000    -8.7593800000     8.8113200000
  266      Si      3.2002300000    -8.7601900000     8.8122700000
  267      Si      7.2100800000    -3.3675300000    10.6583900000
  268      O       4.7977500000    -0.9343000000     9.0652400000
  269      O       6.7062100000    -0.9133100000     7.2426800000
  270      O       7.0519600000     0.3555400000     9.5306500000
  271      O       7.0287900000    -2.2824500000     9.4745000000
  272      O       2.8932100000    -0.9130900000     7.2398100000
  273      O       2.5399600000     0.3518000000     9.5279800000
  274      O       2.5677900000    -2.2862000000     9.4698300000
  275      O       4.8025000000    -5.7803000000     9.1429700000
  276      O       6.9813500000    -7.2554200000     8.9482400000
  277      O       7.1048200000    -4.8584900000    10.0433400000
  278      O       2.6243500000    -7.2571700000     8.9515300000
  279      O       2.5018200000    -4.8602200000    10.0497000000
  280      O       4.8032900000    -8.7443000000     9.0138000000
  281      H       2.5794900000    -9.6272200000     9.8484100000
  282      Si     -6.2618500000     6.9133400000     8.8989700000
  283      Si     -9.4558500000     6.9125300000     8.9029100000
  284      Si     -6.2540500000     3.9023500000     8.8157900000
  285      Si     -9.4600500000     3.9015300000     8.8167400000
  286      O      -7.8587800000     6.8824200000     9.1474400000
  287      O      -5.6789200000     5.4063100000     8.9527100000
  288      H      -5.6114900000     7.7332500000     9.9558200000
  289      O     -10.0359200000     5.4045600000     8.9560000000
  290      O      -7.8569900000     3.9174300000     9.0182700000
  291      O      -5.5767700000     2.9632400000     9.9425400000
  292      H     -10.0817900000     3.0345100000     9.8528800000
  293      Si      6.3991500000     6.9126200000     8.8952100000
  294      Si      3.2061500000     6.9118000000     8.8991600000
  295      Si      6.4069500000     3.9016200000     8.8120400000
  296      Si      3.2009500000     3.9008100000     8.8129900000
  297      H       2.9189000000    11.7999200000     7.1245200000
  298      H       2.5495400000    10.2888000000     9.5645400000
  299      O       4.8032200000     6.8817000000     9.1436800000
  300      O       6.9820800000     5.4055800000     8.9489500000
  301      H       7.0495100000     7.7325200000     9.9520600000
  302      O       2.6250800000     5.4038300000     8.9522500000
  303      O       2.5025400000     7.8007800000    10.0504200000
  304      O       4.8040100000     3.9167000000     9.0145100000
  305      O       7.0842300000     2.9625200000     9.9387800000
  306      O       2.5262300000     2.9587800000     9.9391400000
  307      Si      4.7470200000     0.7000000000   -13.9436500000
  308      Si     -0.0580000000     0.7032800000   -14.0082300000
  309      Si     -0.0591800000    -2.4907200000   -14.0124100000
  310      Si     -3.0689700000     0.7114500000   -13.9243300000
  311      Si     -3.0701600000    -2.4945500000   -13.9245100000
  312      O       4.7775100000     1.0109100000   -12.3576400000
  313      H       4.8293300000    -2.7781000000   -12.2378700000
  314      O      -0.0891600000    -0.8937000000   -14.2563100000
  315      O      -1.5649800000     1.2863700000   -14.0617500000
  316      O      -1.5672300000    -3.0706300000   -14.0639900000
  317      O      -3.0541300000    -0.8915400000   -14.1264300000
  318      Si     -7.9061500000     0.6992400000    12.4661000000
  319      Si     -7.9093300000    -2.4977600000    12.4699200000
  320      O      -7.8973100000    -0.8997500000    12.2300100000
  321      O      -6.6073200000     1.3552000000    11.7637500000
  322      O      -6.6115800000    -3.1568000000    11.7675000000
  323      Si      4.7548500000     0.6985100000    12.4623500000
  324      Si      4.7526700000    -2.4984900000    12.4661700000
  325      Si     -0.0501700000     0.7017900000    12.3977700000
  326      Si     -0.0513500000    -2.4922100000    12.3945900000
  327      Si     -3.0611400000     0.7099600000    12.4816700000
  328      Si     -3.0623300000    -2.4960400000    12.4814900000
  329      Si      2.3303600000     1.5117500000    10.6331100000
  330      O       4.7636900000    -0.9004800000    12.2262500000
  331      H       4.7833000000     0.9844300000    13.9213600000
  332      O       6.0536800000     1.3544800000    11.7600000000
  333      O       3.4157000000     1.3316200000    11.8167800000
  334      H       4.7820900000    -2.7805700000    13.9251400000
  335      O       6.0494200000    -3.1575200000    11.7637500000
  336      O       3.4114400000    -3.1303800000    11.8225300000
  337      O      -0.0813300000    -0.8951900000    12.1496900000
  338      O      -1.5571500000     1.2848800000    12.3442500000
  339      O       0.8405300000     1.4078000000    11.2485500000
  340      O      -1.5594000000    -3.0721200000    12.3420100000
  341      O       0.8372700000    -3.1962000000    11.2432900000
  342      O      -3.0462900000    -0.8930300000    12.2795700000
  343      O      -4.0004400000     1.3870700000    11.3549800000
  344      O      -4.0047000000    -3.1719300000    11.3557300000
  345      H       8.5445500000     1.3963600000    11.2942600000
  346      H       8.5402800000    -3.1886400000    11.2960000000
  347      H       0.9569800000     9.4518000000    11.1959700000
  348      Si    -12.0394900000    -6.7137800000    -0.7360900000
  349      Si    -12.0373000000    -3.5167800000    -0.7319100000
  350      Si     -7.2345100000    -6.7170500000    -0.8035200000
  351      Si     -7.2333300000    -3.5230500000    -0.8073400000
  352      Si     -4.2234800000    -6.7252300000    -0.7214100000
  353      Si     -4.2223000000    -3.5182300000    -0.7212300000
  354      Si     -9.6170800000    -7.5268200000    -2.5668600000
  355      O     -12.0484700000    -5.1147700000    -0.9720000000
  356      O     -12.0700300000    -7.0248700000     0.8499000000
  357      O     -10.7017200000    -7.3468200000    -1.3835200000
  358      O     -12.0698200000    -3.2108700000     0.8541200000
  359      H     -13.2314600000    -2.9106800000    -1.3775200000
[...]
  406      O      -5.7255800000     9.7188600000    -0.8590300000
  407      O      -8.1229000000     9.8420600000    -1.9563200000
  408      O      -4.2387300000     7.5397800000    -0.9226000000
  409      O      -3.2841300000     5.2597800000    -1.8480100000
  410      O      -3.2798700000     9.8177800000    -1.8467500000
  411      Si      0.6222400000     5.9474900000    -0.7391300000
  412      Si      0.6244200000     9.1434900000    -0.7349500000
  413      Si      5.4272200000     5.9442200000    -0.8065600000
  414      Si      5.4284000000     9.1372200000    -0.8103800000
  415      Si      8.4382400000     5.9360400000    -0.7244500000
  416      Si      8.4394200000     9.1420400000    -0.7242700000
  417      Si      3.0456500000     5.1334600000    -2.5698900000
  418      O       0.6132600000     7.5455100000    -0.9750400000
  419      O       0.5926900000     5.6364100000     0.8468600000
  420      O      -0.6770100000     5.2916100000    -1.4407800000
  421      O       1.9610100000     5.3144500000    -1.3865600000
  422      O       0.5929100000     9.4494100000     0.8510800000
  423      O      -0.6727500000     9.8036100000    -1.4365300000
  424      O       1.9652700000     9.7754500000    -1.3793100000
  425      O       5.4582300000     7.5402300000    -1.0544700000
  426      O       6.9341700000     5.3611400000    -0.8610400000
  427      O       4.5358400000     5.2383400000    -1.9553300000
  428      O       6.9364200000     9.7181400000    -0.8627900000
  429      O       4.5381000000     9.8413400000    -1.9600700000
  430      O       8.4232700000     7.5390600000    -0.9263500000
  431      O       9.3768700000     5.2590500000    -1.8517700000
  432      O       9.3811300000     9.8170500000    -1.8505100000
  433      Si     13.2832400000     5.9467700000    -0.7428900000
  434      O      13.2536900000     5.6356800000     0.8431100000
  435      O      11.9839900000     5.2908800000    -1.4445400000
  436      Si     -6.2557100000    -9.9174900000     5.8810100000
  437      Si     -9.4617100000    -9.9163000000     5.8819600000
  438      H      -5.7268300000   -11.3015100000     5.7547800000
  439      O      -7.8587700000    -9.9323800000     5.6794900000
  440      O      -5.5789900000    -8.9784600000     4.7538700000
  441      O     -10.1379900000    -8.9742000000     4.7552200000
  442      Si      6.3970900000   -12.9282100000     5.7930900000
  443      Si      3.2040900000   -12.9270200000     5.7910400000
  444      Si      6.4052900000    -9.9182100000     5.8772600000
  445      Si      3.1992900000    -9.9170300000     5.8782100000
  446      O       4.8010200000   -12.8981000000     5.5465600000
  447      O       6.9801600000   -11.4222400000     5.7400000000
  448      O       2.6231600000   -11.4199900000     5.7382900000
  449      H       2.5557300000   -13.7459300000     4.7321800000
  450      O       4.8022300000    -9.9331100000     5.6757300000
  451      O       7.0820100000    -8.9791900000     4.7501100000
  452      O       2.5240100000    -8.9749300000     4.7514600000
  453      Si     -6.2664400000    -5.0714900000     5.8642900000
  454      Si     -9.4634300000    -5.0693000000     5.8682400000
  455      Si     -6.2631800000    -0.2664800000     5.7975600000
  456      Si     -9.4571800000    -0.2653000000     5.7955100000
  457      Si     -6.2549800000     2.7445100000     5.8817300000
  458      Si     -9.4609800000     2.7457000000     5.8826800000
  459      Si     -5.4538400000    -2.6484300000     4.0331900000
  460      O      -7.8655100000    -5.0803800000     5.6277600000
  461      O      -5.9549700000    -5.1025900000     7.4492000000
  462      O      -5.6107200000    -6.3714800000     5.1620200000
  463      O      -5.6335500000    -3.7334800000     5.2171800000
  464      O      -9.7689700000    -5.1023700000     7.4553300000
  465      O     -10.1227200000    -6.3672200000     5.1673600000
  466      O     -10.0955500000    -3.7282300000     5.2255000000
  467      O      -7.8602500000    -0.2353800000     5.5510400000
  468      O      -5.6801100000     1.2394900000     5.7444700000
  469      O      -5.5575700000    -1.1574600000     4.6483000000
  470      O     -10.0371100000     1.2417400000     5.7427700000
  471      O     -10.1615700000    -1.1551900000     4.6446700000
  472      O      -7.8580400000     2.7286200000     5.6802000000
  473      O      -5.5782600000     3.6835400000     4.7545800000
  474      O     -10.1372600000     3.6878000000     4.7559300000
  475      Si      6.3945600000    -5.0722100000     5.8605300000
  476      Si      3.1985600000    -5.0700300000     5.8644800000
  477      Si      6.3978200000    -0.2672100000     5.7938100000
  478      Si      3.2048200000    -0.2660200000     5.7917500000
  479      Si      6.4060200000     2.7437900000     5.8779700000
  480      Si      3.2000200000     2.7449700000     5.8789200000
  481      Si      7.2081600000    -2.6491500000     4.0294300000
  482      O       4.7964900000    -5.0811100000     5.6240100000
  483      O       6.7060300000    -5.1033200000     7.4454400000
  484      O       7.0502800000    -6.3722100000     5.1582700000
  485      O       7.0274500000    -3.7342100000     5.2134200000
  486      O       2.8930300000    -5.1031000000     7.4515700000
  487      O       2.5382800000    -6.3679500000     5.1636100000
  488      O       2.5664500000    -3.7289500000     5.2217500000
  489      O       4.8017500000    -0.2361000000     5.5472800000
  490      O       6.9808900000     1.2387600000     5.7407200000
  491      O       7.1034300000    -1.1581800000     4.6445500000
  492      O       2.6238900000     1.2410100000     5.7390100000
  493      O       2.5004300000    -1.1559200000     4.6409100000
  494      O       4.8029600000     2.7278900000     5.6764500000
  495      O       7.0827400000     3.6828100000     4.7508300000
  496      O       2.5247400000     3.6870700000     4.7521800000
  497      Si     -6.2657100000     7.5895100000     5.8650100000
  498      Si     -9.4627100000     7.5917000000     5.8689500000
  499      Si     -5.4531100000    10.0135700000     4.0339000000
  500      O      -7.8647800000     7.5806200000     5.6284800000
  501      O      -5.9542400000     7.5594100000     7.4499100000
  502      O      -5.6099900000     6.2905200000     5.1627400000
  503      O      -5.6328300000     8.9285200000     5.2178900000
  504      O      -9.7682400000     7.5596300000     7.4560400000
  505      O     -10.1219900000     6.2947800000     5.1680800000
  506      H     -10.0438100000     8.8257600000     5.2772000000
  507      H      -5.5488700000    11.3845500000     4.6000100000
  508      Si      6.3952900000     7.5887900000     5.8612500000
  509      Si      3.1992900000     7.5909700000     5.8652000000
  510      Si      3.2055400000    12.3949800000     5.7924700000
  511      Si      7.2088800000    10.0128500000     4.0301500000
  512      O       4.7972200000     7.5798900000     5.6247200000
  513      O       6.7067600000     7.5586800000     7.4461600000
  514      O       7.0510100000     6.2897900000     5.1589800000
  515      O       7.0281700000     8.9277900000     5.2141400000
  516      O       2.8937600000     7.5589000000     7.4522900000
  517      O       2.5390100000     6.2940500000     5.1643200000
  518      O       2.5671800000     8.9320400000     5.2224600000
  519      H       4.6744800000    12.4229000000     5.5680300000
  520      H       7.1121300000    11.3838200000     4.5962500000
  521      O       2.5011500000    11.5050800000     4.6416300000
  522      H      -1.3083300000   -13.5211200000    -5.6396600000
  523      H      -1.6920000000   -12.2119600000    -8.1324700000
  524      H       2.4546700000   -13.5223300000    -5.6357700000
  525      H       2.8500000000   -12.2152200000    -8.1288200000
  526      Si    -10.4871100000    -0.9445000000    -7.3342200000
  527      Si    -10.4934100000    -5.7484900000    -7.4074900000
  528      H     -11.9571800000    -0.9334000000    -7.5547900000
  529      O     -10.1806400000    -0.9116000000    -5.7473100000
  530      O      -9.8282500000     0.3535000000    -8.0363500000
  531      O      -9.8553800000    -2.2845000000    -7.9774900000
  532      H      -9.9585000000    -7.1345200000    -7.4567300000
  533      O      -9.7897000000    -4.8584700000    -8.5586500000
  534      Si     -1.0221200000    -0.9420400000    -7.3400300000
  535      Si      2.1738900000    -0.9452200000    -7.3379800000
  536      Si     -1.0254100000    -5.7480400000    -7.4073000000
  537      Si      2.1675900000    -5.7492200000    -7.4112500000
  538      Si     -1.0335600000    -8.7580400000    -7.3234700000
  539      Si      2.1724400000    -8.7592200000    -7.3244200000
  540      Si     -1.8368000000    -3.3658900000    -9.1709300000
  541      O       0.5758100000    -0.9331200000    -7.5775100000
  542      O      -1.3326400000    -0.9121100000    -5.7549400000
  543      O      -1.6782500000     0.3570400000    -8.0427600000
  544      O      -1.6553800000    -2.2809700000    -7.9869200000
  545      O       2.4803600000    -0.9123300000    -5.7510700000
  546      O       2.8337500000     0.3527800000    -8.0401000000
  547      O       2.8056200000    -2.2852200000    -7.9812400000
  548      O       0.5705100000    -5.7791100000    -7.6547800000
  549      O      -1.6085100000    -7.2540000000    -7.4602200000
  550      O      -1.7317000000    -4.8569300000    -8.5560400000
  551      O       2.7484900000    -7.2562500000    -7.4645100000
  552      O       2.8713000000    -4.8591900000    -8.5624100000
  553      O       0.5693800000    -8.7431200000    -7.5259500000
  554      O      -1.7109500000    -9.6979400000    -8.4503200000
  555      O       2.8470500000    -9.7012000000    -8.4516800000
  556      Si     11.6388800000    -0.9427600000    -7.3437900000
  557      Si     11.6355900000    -5.7487600000    -7.4110600000
  558      Si     10.8242000000    -3.3666100000    -9.1746800000
  559      O      11.3283600000    -0.9128400000    -5.7586900000
  560      O      10.9827500000     0.3563100000    -8.0465200000
  561      O      11.0056100000    -2.2816900000    -7.9906800000
  562      H      11.0994900000    -7.1347300000    -7.4599800000
  563      O      10.9293000000    -4.8576500000    -8.5598000000
  564      Si    -10.4878300000     3.9025000000    -7.3199500000
  565      H      -9.9577900000     5.2854800000    -7.4490300000
  566      O      -9.8132200000     2.9605300000    -8.4472000000
  567      Si     -1.0213900000    11.7189600000    -7.3393200000
  568      Si      2.1746100000    11.7167800000    -7.3372600000
  569      Si     -1.0246900000     6.9139600000    -7.4065900000
  570      Si      2.1683100000     6.9127800000    -7.4105300000
  571      Si     -1.0328300000     3.9029600000    -7.3227500000
  572      Si      2.1731700000     3.9017800000    -7.3237100000
  573      Si     -1.8360700000     9.2951100000    -9.1702100000
  574      O       0.5765400000    11.7278800000    -7.5767900000
  575      O      -1.3319200000    11.7488900000    -5.7542200000
  576      O      -1.6546600000    10.3800300000    -7.9862000000
  577      O       2.4810800000    11.7486700000    -5.7503500000
  578      O       2.8063400000    10.3757800000    -7.9805300000
  579      O       0.5712400000     6.8828900000    -7.6540600000
  580      O      -1.6077900000     5.4070000000    -7.4595000000
  581      O      -1.7309700000     7.8050700000    -8.5553300000
  582      O       2.7492100000     5.4047500000    -7.4637900000
  583      O       2.8720200000     7.8018100000    -8.5616900000
  584      O       0.5701100000     3.9178800000    -7.5252300000
  585      O      -1.7102200000     2.9640600000    -8.4496100000
  586      O       2.8477800000     2.9598000000    -8.4509600000
  587      Si     11.6281700000     3.9022400000    -7.3265100000
  588      H      11.0992100000     5.2862700000    -7.4522700000
  589      O      10.9507800000     2.9633400000    -8.4533600000
  590      Si     -1.8392400000   -11.1448900000    -9.1573700000
  591      Si     -9.6177900000    -3.3664400000    -9.1546200000
  592      Si     -1.8385100000     1.5161100000    -9.1566500000
  593      Si      3.0432100000    -3.3671700000    -9.1583700000
  594      Si     10.8224900000     1.5153900000    -9.1604100000
  595      Si      3.0439300000     9.2948300000    -9.1576600000
  596      Si     -5.4511200000    -7.5304300000     4.0469100000
  597      Si    -10.3338400000    -2.6471500000     4.0486300000
  598      Si      7.2098800000    -7.5311500000     4.0431500000
  599      Si      2.3281600000    -2.6478700000     4.0448800000
  600      Si     -5.4503900000     5.1315700000     4.0476200000
  601      Si      7.2106100000     5.1308500000     4.0438700000
  602      Si      2.3288900000    10.0131300000     4.0455900000
  603      Si     -9.6157900000    -2.6468200000    -2.5535800000
  604      Si     -1.8370700000    -7.5302600000    -2.5561600000
  605      Si     10.8239300000    -7.5309900000    -2.5599200000
  606      Si     -9.6150700000    10.0141800000    -2.5528600000
  607      Si     -1.8363500000     5.1317400000    -2.5554500000
  608      Si      3.0459300000    10.0134600000    -2.5566200000
  609      Si     10.8246500000     5.1310100000    -2.5592000000
  610      Si     -5.4486400000     1.5152000000    10.6484200000
  611      Si      7.2123600000     1.5144700000    10.6446600000
  612      Si      2.3300800000    -3.3682500000    10.6458400000
  613      Si      2.3308100000     9.2937500000    10.6465500000
  614      O      -3.6475200000     1.0644000000   -12.4571400000
  615      O      -3.6477400000    -2.8476000000   -12.4573600000
  616      H      -3.5937200000     1.0349100000    13.8318400000
  617      H      -3.5939400000    -2.8210900000    13.8316200000
  618      O      -3.6440700000    -7.0773500000     0.7454000000
  619      O      -3.6438400000    -3.1663500000     0.7456200000
  620      O       9.0169300000    -7.0780700000     0.7416400000
  621      O       9.0171500000    -3.1670700000     0.7418600000
  622      O      -3.6433400000     5.5836500000     0.7461100000
  623      O      -3.6431200000     9.4946500000     0.7463400000
  624      O       9.0176600000     5.5829300000     0.7423600000
  625      O       9.0178800000     9.4939300000     0.7425800000
  626      O      -1.3861600000    -9.3381000000    -5.8564000000
  627      O       2.5248400000    -9.3383300000    -5.8575600000
  628      O     -10.1354300000     3.3244000000    -5.8530900000
  629      O      -1.3854300000     3.3239000000    -5.8556800000
  630      O       2.5255700000     3.3236700000    -5.8568400000
  631      O      11.2755700000     3.3231700000    -5.8594400000
  632      O      -5.9022400000    -9.3385900000     7.3479400000
  633      O       6.7587600000    -9.3393200000     7.3441900000
  634      O       2.8477600000    -9.3390900000     7.3453500000
  635      O      -5.9015100000     3.3234100000     7.3486600000
  636      O      -9.8135100000     3.3236300000     7.3498200000
  637      O       6.7594800000     3.3226800000     7.3449000000
  638      O       2.8484800000     3.3229100000     7.3460600000
  639      H       2.0444300000   -11.3140500000   -10.2335300000
  640      H       4.4135900000   -11.2452200000    -9.7122300000
  641      H      -7.8314600000     0.9866300000   -12.2379000000
  642      H      -7.8316700000    -2.7773700000   -12.2341200000
  643      H     -10.6168400000     1.3476700000   -10.2290600000
  644      H       8.9675100000     1.0356700000   -12.3438800000
  645      H       8.9672900000    -2.8203300000   -12.3441000000
  646      H     -14.1016000000    -7.2518400000     2.3484900000
  647      H      13.4276900000    -7.3674700000     3.3473200000
  648      H     -12.7437100000     7.4130700000     2.5269200000
  649      H     -14.1008800000     5.4091600000     2.3492100000
  650      H     -14.2210800000     1.1205400000    -4.2520000000
  651      H     -13.9696100000    -0.8593900000    -5.6351900000
  652      H     -14.3349100000    -1.0855100000    -3.2450900000
  653      H     -11.9556800000     7.5824100000    -4.1513100000
  654      H      -1.5593600000    13.7808200000    -4.2550400000
  655      H       2.7046400000    13.7825700000    -4.2543000000
  656      H      13.1103200000     7.5809700000    -4.1587400000
  657      H      11.8952200000     9.8198900000    -1.5282500000
  658      H      10.9238500000    11.3840400000    -3.1108800000
  659      H      -9.9906400000    -7.1354500000     8.9512800000
  660      H     -10.1042100000    -4.9305000000     9.9614400000
  661      H       7.0294900000    -9.6244700000     9.8480900000
  662      H     -10.1034900000     7.7305000000     9.9621500000
  663      H       3.5148800000     1.2821100000   -14.5382500000
  664      H       5.9418600000     1.3039700000   -14.5899700000
  665      H       4.7548700000    -0.7709800000   -14.1607400000
  666      H       0.7617200000     1.3533000000   -15.0654300000
  667      H       0.7584700000    -3.1387000000   -15.0706800000
  668      H      -3.9332500000     1.3345600000   -14.9610400000
  669      H      -3.9375000000    -3.1164400000   -14.9602900000
  670      H      -7.8777000000     0.9851500000    13.9251100000
  671      H      -9.1382900000     1.2813400000    11.8725000000
  672      H      -7.8789100000    -2.7798500000    13.9289000000
  673      H      -9.1425400000    -3.0786600000    11.8782600000
  674      H     -13.2357100000    -7.3176800000    -1.3817700000
  675      H      14.5143000000    -7.2972700000    -1.3390000000
  676      H      13.2752600000     7.4167800000    -0.9598000000
  677      H      14.5150300000     5.3647300000    -1.3382800000
  678      H      -9.9918300000   -11.2992700000     5.7530400000
  679      H      -9.7862800000    -9.3843600000     7.2320900000
  680      H       6.6804500000   -13.5223000000     7.1259700000
  681      H       7.0467300000   -13.7491800000     4.7358500000
  682      H       2.9174500000   -13.5230800000     7.1230900000
  683      H       2.6706100000    13.7820100000     5.7437100000
  684      H     -11.9624800000    -5.7764000000    -7.6310600000
  685      H      13.1088200000    -0.9348400000    -7.5622200000
  686      H      13.1045200000    -5.7778300000    -7.6385000000
  687      H      11.8919100000    -3.1736200000   -10.1919900000
  688      H     -11.9638900000     3.9176000000    -7.5055100000
  689      H      -1.6255100000    12.9140300000    -7.9860700000
  690      H       2.7814900000    12.9097800000    -7.9833800000
  691      H      13.1031100000     3.9161600000    -7.5129500000
  692      H      -3.1714400000   -11.2637800000    -9.8069800000
  693      H      -0.7735500000   -11.2928900000   -10.1836900000
  694      H     -10.6131000000    -3.1473300000   -10.2373100000
  695      H      11.8881700000     1.3683800000   -10.1867300000
  696      H      -9.7731500000    11.3872200000    -3.1007400000
  697      H     -10.6097600000     9.7951800000    -1.4695800000
  698      H       3.3261400000     9.5126300000    11.7292700000
 ----------------------------------------------------------------
 Nuclear Repulsion Energy =      778636.28190420 hartrees
 There are       86 alpha and       86 beta electrons
 Total job time:  603.50s(wall), 8847.82s(cpu) 
 Sat May 22 08:45:48 2021

        *************************************************************
        *                                                           *
        *  Thank you very much for using Q-Chem.  Have a nice day.  *
        *                                                           *
        *************************************************************


