[Molden Format]
[Geometries] (XYZ)
35

C        2.231623      -0.307277       0.904913
C        0.824437       0.009431       0.407263
O        0.387969      -0.905723      -0.567920
C       -0.185414       0.023984       1.538559
O       -1.215181      -0.585628       1.466526
H        2.241802      -1.281897       1.385859
H        2.548254       0.451709       1.619508
H        2.920029      -0.317461       0.062572
H        0.821889       1.023148      -0.033954
H        0.084672       0.652911       2.408952
H       -0.539955      -1.132932      -0.370441
Sn       0.650343      -3.213015      -0.817507
O        0.719776      -5.185442      -0.998507
O        0.728504      -3.153995       1.116875
O       -1.210829      -2.951316      -1.212978
O        2.638930      -2.777652      -0.894669
O        1.075897      -2.636053      -2.739789
H        3.192331      -2.983511      -0.148635
H        0.547753      -3.073336      -3.403658
Si      -0.104144      -3.544001       2.432707
Si      -1.957145      -2.634720      -2.601108
Si       0.628636      -6.772292      -0.734218
Si       3.022511      -2.634673      -2.599394
H       -0.082093      -4.993213       2.530076
H       -1.441798      -2.989370       2.354880
H        0.763755      -2.876394       3.364387
H       -1.675707      -3.644508      -3.630539
H        2.825129      -3.640395      -3.642461
H       -1.745342      -1.274606      -3.106903
H        2.886143      -1.273272      -3.107821
H       -3.171995      -2.825717      -1.902292
H        0.594469      -6.999978       0.718542
H       -0.573646      -7.317194      -1.386096
H        1.853323      -7.296181      -1.336214
H        4.417262      -2.804299      -2.010804
35

C        2.372349      -0.216700       0.896639
C        0.977322       0.105935       0.538993
O        0.427752      -0.938768      -0.536600
C        0.090963       0.048588       1.762033
O       -0.890218      -0.639598       1.823878
H        2.101312      -1.889295       1.494245
H        2.766623       0.400453       1.707701
H        3.042962      -0.214020       0.040538
H        0.880983       1.084271       0.059237
H        0.419015       0.692891       2.614193
H       -0.498371      -1.130503      -0.322091
Sn       0.647032      -3.163896      -0.855505
O        0.686109      -5.187359      -1.010725
O        0.831399      -3.117594       1.202994
O       -1.276599      -2.931768      -1.200600
O        2.672454      -2.803724      -0.934861
O        1.054307      -2.579773      -2.824505
H        3.254573      -3.021548      -0.213688
H        0.511024      -2.979104      -3.501784
Si      -0.120906      -3.541255       2.452248
Si      -1.952474      -2.647640      -2.623012
Si       0.632542      -6.765212      -0.740765
Si       3.011611      -2.650634      -2.629859
H       -0.082093      -4.993213       2.530076
H       -1.441798      -2.989370       2.354880
H        0.763755      -2.876394       3.364387
H       -1.675707      -3.644508      -3.630539
H        2.825129      -3.640395      -3.642461
H       -1.745342      -1.274606      -3.106903
H        2.886143      -1.273272      -3.107821
H       -3.171995      -2.825717      -1.902292
H        0.594469      -6.999978       0.718542
H       -0.573646      -7.317194      -1.386096
H        1.853323      -7.296181      -1.336214
H        4.417262      -2.804299      -2.010804
35

C        2.565957      -0.111801       0.891942
C        1.151097       0.185980       0.662324
O        0.481939      -0.963270      -0.475525
C        0.416538       0.047694       1.971704
O       -0.472114      -0.738710       2.154593
H        1.900271      -2.265803       1.453345
H        3.026347       0.367213       1.762009
H        3.202741      -0.080639       0.011301
H        0.943217       1.120540       0.151649
H        0.791209       0.708491       2.801644
H       -0.440841      -1.125784      -0.242464
Sn       0.627565      -3.116370      -0.888016
O        0.645417      -5.177157      -1.018835
O        0.901133      -3.087091       1.246376
O       -1.345725      -2.931925      -1.177578
O        2.680566      -2.818730      -0.956452
O        1.027775      -2.523012      -2.890726
H        3.288825      -3.046327      -0.259686
H        0.478142      -2.887781      -3.583254
Si      -0.144765      -3.525515       2.434856
Si      -1.944320      -2.671128      -2.632649
Si       0.631800      -6.747823      -0.742784
Si       2.986600      -2.647575      -2.641354
H       -0.082093      -4.993213       2.530076
H       -1.441798      -2.989370       2.354880
H        0.763755      -2.876394       3.364387
H       -1.675707      -3.644508      -3.630539
H        2.825129      -3.640395      -3.642461
H       -1.745342      -1.274606      -3.106903
H        2.886143      -1.273272      -3.107821
H       -3.171995      -2.825717      -1.902292
H        0.594469      -6.999978       0.718542
H       -0.573646      -7.317194      -1.386096
H        1.853323      -7.296181      -1.336214
H        4.417262      -2.804299      -2.010804
35

C        2.858727      -0.111574       1.178217
C        1.512936       0.291624       1.061026
O        0.540599      -1.163219      -0.543805
C        0.701304       0.077831       2.305832
O       -0.159178      -0.756428       2.408123
H        1.680545      -2.409873       1.408277
H        3.401068      -0.020732       2.118958
H        3.489184      -0.049086       0.297531
H        1.240280       1.170571       0.483348
H        0.974263       0.729823       3.172576
H       -0.381558      -1.175803      -0.282185
Sn       0.631646      -3.127265      -0.920087
O        0.663388      -5.179790      -0.989998
O        0.851754      -3.127468       1.198125
O       -1.315603      -3.020930      -1.154871
O        2.670399      -2.894381      -0.934768
O        1.047619      -2.558705      -2.881115
H        3.259689      -3.157050      -0.237638
H        0.508274      -2.916274      -3.584850
Si      -0.142158      -3.577985       2.431554
Si      -1.949377      -2.656169      -2.576840
Si       0.622326      -6.761188      -0.743316
Si       3.031142      -2.645073      -2.605239
H       -0.082093      -4.993213       2.530076
H       -1.441798      -2.989370       2.354880
H        0.763755      -2.876394       3.364387
H       -1.675707      -3.644508      -3.630539
H        2.825129      -3.640395      -3.642461
H       -1.745342      -1.274606      -3.106903
H        2.886143      -1.273272      -3.107821
H       -3.171995      -2.825717      -1.902292
H        0.594469      -6.999978       0.718542
H       -0.573646      -7.317194      -1.386096
H        1.853323      -7.296181      -1.336214
H        4.417262      -2.804299      -2.010804
35

C        3.160680      -0.238626       1.468965
C        1.914913       0.282946       1.495995
O        0.612927      -1.336606      -0.646999
C        0.980599       0.028912       2.634248
O        0.128567      -0.823367       2.621680
H        1.431686      -2.461081       1.301350
H        3.658785      -0.622202       2.351367
H        3.792208      -0.121879       0.598304
H        1.604226       1.100124       0.845594
H        1.123371       0.678798       3.523092
H       -0.270661      -1.147016      -0.348998
Sn       0.636074      -3.111286      -0.983340
O        0.710086      -5.149299      -0.947402
O        0.749287      -3.134197       1.112723
O       -1.275115      -3.109651      -1.152819
O        2.657307      -2.954021      -0.924789
O        1.056492      -2.621722      -2.914409
H        3.226277      -3.246376      -0.226751
H        0.540070      -3.004313      -3.621609
Si      -0.148790      -3.578306       2.422534
Si      -1.947989      -2.656253      -2.536028
Si       0.623487      -6.740871      -0.733980
Si       3.059417      -2.641840      -2.581000
H       -0.082093      -4.993213       2.530076
H       -1.441798      -2.989370       2.354880
H        0.763755      -2.876394       3.364387
H       -1.675707      -3.644508      -3.630539
H        2.825129      -3.640395      -3.642461
H       -1.745342      -1.274606      -3.106903
H        2.886143      -1.273272      -3.107821
H       -3.171995      -2.825717      -1.902292
H        0.594469      -6.999978       0.718542
H       -0.573646      -7.317194      -1.386096
H        1.853323      -7.296181      -1.336214
H        4.417262      -2.804299      -2.010804
35

C        3.139341      -0.249086       1.268532
C        1.977398       0.280882       1.521701
O        0.609860      -1.204008      -0.646285
C        1.069263       0.014900       2.676122
O        0.257140      -0.889611       2.710609
H        1.262180      -2.410140       1.094060
H        3.529888      -0.839878       2.091168
H        3.796899      -0.133903       0.421489
H        1.597041       1.056633       0.857602
H        1.179610       0.715377       3.528321
H       -0.253340      -0.966304      -0.325499
Sn       0.635067      -3.101464      -1.027832
O        0.751433      -5.125075      -0.937552
O        0.672767      -3.093540       0.975454
O       -1.263918      -3.154194      -1.161928
O        2.659289      -2.964626      -0.953303
O        1.068262      -2.723398      -2.969902
H        3.221908      -3.261663      -0.251526
H        0.579753      -3.169994      -3.657215
Si      -0.253085      -3.492420       2.295775
Si      -1.947366      -2.696307      -2.542245
Si       0.640601      -6.717844      -0.713745
Si       3.071717      -2.666407      -2.613888
H       -0.082093      -4.993213       2.530076
H       -1.441798      -2.989370       2.354880
H        0.763755      -2.876394       3.364387
H       -1.675707      -3.644508      -3.630539
H        2.825129      -3.640395      -3.642461
H       -1.745342      -1.274606      -3.106903
H        2.886143      -1.273272      -3.107821
H       -3.171995      -2.825717      -1.902292
H        0.594469      -6.999978       0.718542
H       -0.573646      -7.317194      -1.386096
H        1.853323      -7.296181      -1.336214
H        4.417262      -2.804299      -2.010804
35

C        2.922582      -0.181610       0.841697
C        1.914831       0.211063       1.466629
O        0.545752      -1.059144      -0.463036
C        1.169200      -0.210044       2.687298
O        0.653151      -1.320619       2.848840
H        1.239797      -2.281491       0.961528
H        3.131302      -0.817419       1.695936
H        3.668123      -0.200035       0.062155
H        1.425530       1.025608       0.939354
H        1.175359       0.534552       3.504619
H       -0.373532      -0.998837      -0.214514
Sn       0.689194      -3.079327      -1.005363
O        0.835222      -5.076846      -0.955786
O        0.696435      -3.006609       0.926141
O       -1.217948      -3.122579      -1.106957
O        2.733098      -2.940782      -0.997649
O        1.156410      -2.808951      -2.973445
H        3.308114      -3.238096      -0.302138
H        0.704684      -3.347731      -3.618657
Si      -0.463569      -3.316313       2.111005
Si      -1.939096      -2.686574      -2.478938
Si       0.726985      -6.665975      -0.699237
Si       3.144516      -2.684721      -2.664422
H       -0.082093      -4.993213       2.530076
H       -1.441798      -2.989370       2.354880
H        0.763755      -2.876394       3.364387
H       -1.675707      -3.644508      -3.630539
H        2.825129      -3.640395      -3.642461
H       -1.745342      -1.274606      -3.106903
H        2.886143      -1.273272      -3.107821
H       -3.171995      -2.825717      -1.902292
H        0.594469      -6.999978       0.718542
H       -0.573646      -7.317194      -1.386096
H        1.853323      -7.296181      -1.336214
H        4.417262      -2.804299      -2.010804
35

C        2.875904      -0.169074       0.790194
C        1.902166       0.187855       1.463611
O        0.523035      -1.064735      -0.395627
C        1.154454      -0.291127       2.660919
O        0.815386      -1.465407       2.859890
H        1.292477      -2.280324       0.954301
H        2.985870      -0.809765       1.658112
H        3.657509      -0.245766       0.050158
H        1.421504       1.030889       0.976140
H        1.035328       0.469677       3.453486
H       -0.415876      -1.067403      -0.222529
Sn       0.716656      -3.094377      -0.994431
O        0.863484      -5.086914      -0.971810
O        0.753424      -3.012600       0.933894
O       -1.193122      -3.116880      -1.088948
O        2.765044      -2.954998      -1.032297
O        1.175641      -2.843913      -2.972022
H        3.351796      -3.252136      -0.345983
H        0.733464      -3.414522      -3.596453
Si      -0.506061      -3.266306       2.034294
Si      -1.936255      -2.693030      -2.453480
Si       0.768344      -6.675210      -0.707146
Si       3.162918      -2.709746      -2.702292
H       -0.082093      -4.993213       2.530076
H       -1.441798      -2.989370       2.354880
H        0.763755      -2.876394       3.364387
H       -1.675707      -3.644508      -3.630539
H        2.825129      -3.640395      -3.642461
H       -1.745342      -1.274606      -3.106903
H        2.886143      -1.273272      -3.107821
H       -3.171995      -2.825717      -1.902292
H        0.594469      -6.999978       0.718542
H       -0.573646      -7.317194      -1.386096
H        1.853323      -7.296181      -1.336214
H        4.417262      -2.804299      -2.010804
35

C        2.867626      -0.170177       0.797900
C        1.895397       0.179750       1.470814
O        0.511352      -1.076854      -0.364580
C        1.121635      -0.326126       2.640059
O        0.875375      -1.520200       2.861594
H        1.324530      -2.294188       0.952597
H        2.916720      -0.817885       1.665962
H        3.670482      -0.269738       0.083665
H        1.434653       1.040639       0.995849
H        0.918567       0.439257       3.410687
H       -0.434974      -1.105731      -0.240252
Sn       0.728142      -3.106561      -0.986546
O        0.872527      -5.098058      -0.980139
O        0.787002      -3.026555       0.941337
O       -1.182125      -3.115492      -1.082885
O        2.777585      -2.967138      -1.047400
O        1.180918      -2.858684      -2.967443
H        3.369217      -3.265424      -0.365653
H        0.743545      -3.443506      -3.582108
Si      -0.517371      -3.245097       1.997971
Si      -1.934911      -2.697079      -2.443914
Si       0.785526      -6.686381      -0.713471
Si       3.168932      -2.723748      -2.718563
H       -0.082093      -4.993213       2.530076
H       -1.441798      -2.989370       2.354880
H        0.763755      -2.876394       3.364387
H       -1.675707      -3.644508      -3.630539
H        2.825129      -3.640395      -3.642461
H       -1.745342      -1.274606      -3.106903
H        2.886143      -1.273272      -3.107821
H       -3.171995      -2.825717      -1.902292
H        0.594469      -6.999978       0.718542
H       -0.573646      -7.317194      -1.386096
H        1.853323      -7.296181      -1.336214
H        4.417262      -2.804299      -2.010804
35

C        2.844134      -0.440187       1.732509
C        1.798928       0.117574       1.140076
O        0.559108      -1.158091      -0.501907
C        0.392814      -0.364537       1.241093
O        0.048372      -1.279229       2.011026
H        1.519076      -2.616280       1.272104
H        2.729081      -1.236427       2.457516
H        3.856411      -0.110902       1.551427
H        1.934658       0.916891       0.419346
H       -0.352478       0.382595       0.915986
H       -0.341844      -1.022272      -0.790894
Sn       0.614968      -3.192894      -0.888974
O        0.678515      -5.182416      -1.004951
O        1.008234      -3.412650       1.129633
O       -1.269317      -3.079023      -1.200573
O        2.650155      -3.043246      -0.958890
O        1.025454      -2.675372      -2.829964
H        3.214259      -3.403469      -0.283342
H        0.614653      -3.257377      -3.465986
Si      -0.092317      -3.484090       2.425144
Si      -1.948469      -2.643962      -2.595044
Si       0.627627      -6.769902      -0.738953
Si       3.029453      -2.651324      -2.605379
H       -0.082093      -4.993213       2.530076
H       -1.441798      -2.989370       2.354880
H        0.763755      -2.876394       3.364387
H       -1.675707      -3.644508      -3.630539
H        2.825129      -3.640395      -3.642461
H       -1.745342      -1.274606      -3.106903
H        2.886143      -1.273272      -3.107821
H       -3.171995      -2.825717      -1.902292
H        0.594469      -6.999978       0.718542
H       -0.573646      -7.317194      -1.386096
H        1.853323      -7.296181      -1.336214
H        4.417262      -2.804299      -2.010804
35

C        2.836842      -0.452086       1.756144
C        1.804129       0.107352       1.143664
O        0.555107      -1.162679      -0.495993
C        0.396449      -0.376946       1.204378
O        0.026259      -1.258317       2.000768
H        1.522468      -2.631550       1.281649
H        2.705327      -1.253234       2.472898
H        3.852404      -0.119582       1.601235
H        1.961696       0.910612       0.431814
H       -0.337263       0.357136       0.827350
H       -0.339572      -1.036433      -0.807901
Sn       0.614241      -3.197943      -0.880599
O        0.676221      -5.187073      -1.004001
O        1.016690      -3.430156       1.134730
O       -1.268590      -3.080296      -1.199484
O        2.648966      -3.045554      -0.957841
O        1.022960      -2.672324      -2.819784
H        3.212486      -3.408003      -0.282997
H        0.615421      -3.258344      -3.454214
Si      -0.095980      -3.487713       2.420549
Si      -1.948966      -2.646653      -2.593799
Si       0.627976      -6.774522      -0.737284
Si       3.027827      -2.648306      -2.603147
H       -0.082093      -4.993213       2.530076
H       -1.441798      -2.989370       2.354880
H        0.763755      -2.876394       3.364387
H       -1.675707      -3.644508      -3.630539
H        2.825129      -3.640395      -3.642461
H       -1.745342      -1.274606      -3.106903
H        2.886143      -1.273272      -3.107821
H       -3.171995      -2.825717      -1.902292
H        0.594469      -6.999978       0.718542
H       -0.573646      -7.317194      -1.386096
H        1.853323      -7.296181      -1.336214
H        4.417262      -2.804299      -2.010804
[GEOCONV]
energy
0.0
80.28970034019585
113.81903275429067
89.28312721057591
64.78359137599182
72.23392362026789
252.5923965427719
343.28945768932317
376.9596647315193
35.363624513789546
34.64733289189462
max-force
0.0
0.009062144131959406
0.009231764219557135
0.008370623751526947
0.009654448875733012
0.008496055032317752
0.009490889938309596
0.006276614948155682
0.009885315001549402
0.009707832815579782
0.0020829068019000054
max-step
1000.0
1000.0
1000.0
1000.0
1000.0
1000.0
1000.0
1000.0
1000.0
1000.0
1000.0
