35
 energy: -60.308787247553 gnorm: 0.001017819153 xtb: 6.4.0 (4cdc11a)
C         2.05972501625378   -0.22508464433346    0.96665683308081
C         0.66606597421729    0.03128322038199    0.40185986883692
O         0.30711143967644   -0.90597549140079   -0.58288150695855
C        -0.40407905194300    0.01714288556673    1.47807196623603
O        -1.40796732000792   -0.62512293633739    1.34887227570618
H         2.09827707371077   -1.20015638439746    1.44511604032087
H         2.30540262382320    0.54577587337001    1.69643598848074
H         2.78704211177989   -0.20034544341511    0.15782040602648
H         0.64419269101637    1.04189565620635   -0.04616216638803
H        -0.20764502973609    0.65856245304100    2.35857639292330
H        -0.61752343294843   -1.16908062290628   -0.41098659593877
Sn        0.64788631180422   -3.20838803038917   -0.81869648592633
O         0.73784894049751   -5.18269661058765   -0.99400722665078
O         0.71152605677386   -3.13812511024719    1.11664093036520
O        -1.21505354401706   -2.97874217561617   -1.22347525979909
O         2.63181079438694   -2.73673442096031   -0.88634987176796
O         1.07749687493240   -2.63701415787620   -2.74130379617590
H         3.18206900979007   -2.92308525026460   -0.13267669492588
H         0.55818116981221   -3.08689416962977   -3.40359924339695
Si       -0.10764269912656   -3.54564295781551    2.43448396871435
Si       -1.95934135004484   -2.63805249415706   -2.60607572845026
Si        0.63212257644527   -6.76994255379441   -0.73407045474456
Si        3.02205099112313   -2.63050245395844   -2.59552846263917
H        -0.08209300000003   -4.99321299000006    2.53007600999999
H        -1.44179797000018   -2.98937001000002    2.35488000000008
H         0.76375498000019   -2.87639402000017    3.36438698000001
H        -1.67570697999985   -3.64450799000030   -3.63053901000020
H         2.82512910000016   -3.64039502000007   -3.64246100999976
H        -1.74534203000005   -1.27460600999996   -3.10690297000004
H         2.88614296000017   -1.27327196999992   -3.10782101999996
H        -3.17199500000017   -2.82571698000009   -1.90229199999999
H         0.59446901000011   -6.99997800999987    0.71854203999989
H        -0.57364600999998   -7.31719401000008   -1.38609602000001
H         1.85332297000009   -7.29618098999991   -1.33621399000005
H         4.41726195999994   -2.80429902000003   -2.01080401000000
